BD data file

1047 atoms
72 bonds
54 angles
0 dihedrals
0 impropers

4 atom types
1 bond types
1 angle types
0 dihedral types
0 improper types

0.000000e+00 1.000000e+03 xlo xhi
0.000000e+00 1.000000e+03 ylo yhi
0.000000e+00 5.000000e+02 zlo zhi

Masses

1 1.000000e+00
2 1.000000e+00
3 1.000000e+00
4 1.000000e+00

Atoms

1 1 1 1.000000e+00 0.000000e+00 0.000000e+00 0.000000e+00 6.614244e-01 0.000000e+00 0.000000e+00 0.000000e+00 2.500000e+02 0 0 0
2 1 1 1.000000e+00 0.000000e+00 0.000000e+00 0.000000e+00 3.024792e-01 0.000000e+00 3.500000e+01 0.000000e+00 2.500000e+02 0 0 0
3 1 1 1.000000e+00 0.000000e+00 0.000000e+00 0.000000e+00 -9.537550e-02 0.000000e+00 7.000000e+01 0.000000e+00 2.500000e+02 0 0 0
4 1 1 1.000000e+00 0.000000e+00 0.000000e+00 0.000000e+00 -9.922008e-01 0.000000e+00 1.050000e+02 0.000000e+00 2.500000e+02 0 0 0
5 1 1 1.000000e+00 0.000000e+00 0.000000e+00 0.000000e+00 8.884332e-01 0.000000e+00 1.400000e+02 0.000000e+00 2.500000e+02 0 0 0
6 1 1 1.000000e+00 0.000000e+00 0.000000e+00 0.000000e+00 5.326128e-01 0.000000e+00 1.750000e+02 0.000000e+00 2.500000e+02 0 0 0
7 1 1 1.000000e+00 0.000000e+00 0.000000e+00 0.000000e+00 3.632030e-02 0.000000e+00 2.100000e+02 0.000000e+00 2.500000e+02 0 0 0
8 1 1 1.000000e+00 0.000000e+00 0.000000e+00 0.000000e+00 -6.201774e-01 0.000000e+00 2.450000e+02 0.000000e+00 2.500000e+02 0 0 0
9 1 1 1.000000e+00 0.000000e+00 0.000000e+00 0.000000e+00 6.629855e-03 0.000000e+00 2.800000e+02 0.000000e+00 2.500000e+02 0 0 0
10 1 1 1.000000e+00 0.000000e+00 0.000000e+00 0.000000e+00 9.040879e-01 0.000000e+00 3.150000e+02 0.000000e+00 2.500000e+02 0 0 0
11 1 1 1.000000e+00 0.000000e+00 0.000000e+00 0.000000e+00 -7.301951e-01 0.000000e+00 3.500000e+02 0.000000e+00 2.500000e+02 0 0 0
12 1 1 1.000000e+00 0.000000e+00 0.000000e+00 0.000000e+00 4.266699e-02 0.000000e+00 3.850000e+02 0.000000e+00 2.500000e+02 0 0 0
13 1 1 1.000000e+00 0.000000e+00 0.000000e+00 0.000000e+00 -9.930075e-02 0.000000e+00 4.200000e+02 0.000000e+00 2.500000e+02 0 0 0
14 1 1 1.000000e+00 0.000000e+00 0.000000e+00 0.000000e+00 8.735114e-01 0.000000e+00 4.550000e+02 0.000000e+00 2.500000e+02 0 0 0
15 1 1 1.000000e+00 0.000000e+00 0.000000e+00 0.000000e+00 -9.064346e-01 0.000000e+00 4.900000e+02 0.000000e+00 2.500000e+02 0 0 0
16 1 1 1.000000e+00 0.000000e+00 0.000000e+00 0.000000e+00 -4.124814e-01 0.000000e+00 5.250000e+02 0.000000e+00 2.500000e+02 0 0 0
17 1 1 1.000000e+00 0.000000e+00 0.000000e+00 0.000000e+00 -2.242316e-01 0.000000e+00 5.600000e+02 0.000000e+00 2.500000e+02 0 0 0
18 1 1 1.000000e+00 0.000000e+00 0.000000e+00 0.000000e+00 5.378748e-01 0.000000e+00 5.950000e+02 0.000000e+00 2.500000e+02 0 0 0
19 1 1 1.000000e+00 0.000000e+00 0.000000e+00 0.000000e+00 2.506536e-03 0.000000e+00 6.300000e+02 0.000000e+00 2.500000e+02 0 0 0
20 1 1 1.000000e+00 0.000000e+00 0.000000e+00 0.000000e+00 3.697477e-02 0.000000e+00 6.650000e+02 0.000000e+00 2.500000e+02 0 0 0
21 1 1 1.000000e+00 0.000000e+00 0.000000e+00 0.000000e+00 2.004514e-01 0.000000e+00 7.000000e+02 0.000000e+00 2.500000e+02 0 0 0
22 1 1 1.000000e+00 0.000000e+00 0.000000e+00 0.000000e+00 -9.711601e-01 0.000000e+00 7.350000e+02 0.000000e+00 2.500000e+02 0 0 0
23 1 1 1.000000e+00 0.000000e+00 0.000000e+00 0.000000e+00 -9.529559e-01 0.000000e+00 7.700000e+02 0.000000e+00 2.500000e+02 0 0 0
24 1 1 1.000000e+00 0.000000e+00 0.000000e+00 0.000000e+00 -8.021957e-01 0.000000e+00 8.050000e+02 0.000000e+00 2.500000e+02 0 0 0
25 1 1 1.000000e+00 0.000000e+00 0.000000e+00 0.000000e+00 -3.556232e-02 0.000000e+00 8.400000e+02 0.000000e+00 2.500000e+02 0 0 0
26 1 1 1.000000e+00 0.000000e+00 0.000000e+00 0.000000e+00 8.767194e-01 0.000000e+00 8.750000e+02 0.000000e+00 2.500000e+02 0 0 0
27 1 1 1.000000e+00 0.000000e+00 0.000000e+00 0.000000e+00 -7.039608e-01 0.000000e+00 9.100000e+02 0.000000e+00 2.500000e+02 0 0 0
28 1 1 1.000000e+00 0.000000e+00 0.000000e+00 0.000000e+00 -7.005498e-01 0.000000e+00 9.450000e+02 0.000000e+00 2.500000e+02 0 0 0
29 1 1 1.000000e+00 0.000000e+00 0.000000e+00 0.000000e+00 8.262433e-01 0.000000e+00 9.800000e+02 0.000000e+00 2.500000e+02 0 0 0
30 1 1 1.000000e+00 0.000000e+00 0.000000e+00 0.000000e+00 7.848871e-01 0.000000e+00 1.750000e+01 3.031088e+01 2.500000e+02 0 0 0
31 1 1 1.000000e+00 0.000000e+00 0.000000e+00 0.000000e+00 7.338264e-01 0.000000e+00 5.250000e+01 3.031088e+01 2.500000e+02 0 0 0
32 1 1 1.000000e+00 0.000000e+00 0.000000e+00 0.000000e+00 -6.274835e-01 0.000000e+00 8.750000e+01 3.031088e+01 2.500000e+02 0 0 0
33 1 1 1.000000e+00 0.000000e+00 0.000000e+00 0.000000e+00 -7.057784e-01 0.000000e+00 1.225000e+02 3.031088e+01 2.500000e+02 0 0 0
34 1 1 1.000000e+00 0.000000e+00 0.000000e+00 0.000000e+00 7.177863e-01 0.000000e+00 1.575000e+02 3.031088e+01 2.500000e+02 0 0 0
35 1 1 1.000000e+00 0.000000e+00 0.000000e+00 0.000000e+00 4.738061e-01 0.000000e+00 1.925000e+02 3.031088e+01 2.500000e+02 0 0 0
36 1 1 1.000000e+00 0.000000e+00 0.000000e+00 0.000000e+00 -6.818016e-03 0.000000e+00 2.275000e+02 3.031088e+01 2.500000e+02 0 0 0
37 1 1 1.000000e+00 0.000000e+00 0.000000e+00 0.000000e+00 5.188195e-01 0.000000e+00 2.625000e+02 3.031088e+01 2.500000e+02 0 0 0
38 1 1 1.000000e+00 0.000000e+00 0.000000e+00 0.000000e+00 -6.996780e-01 0.000000e+00 2.975000e+02 3.031088e+01 2.500000e+02 0 0 0
39 1 1 1.000000e+00 0.000000e+00 0.000000e+00 0.000000e+00 9.010140e-01 0.000000e+00 3.325000e+02 3.031088e+01 2.500000e+02 0 0 0
40 1 1 1.000000e+00 0.000000e+00 0.000000e+00 0.000000e+00 7.177019e-01 0.000000e+00 3.675000e+02 3.031088e+01 2.500000e+02 0 0 0
41 1 1 1.000000e+00 0.000000e+00 0.000000e+00 0.000000e+00 -4.729907e-01 0.000000e+00 4.025000e+02 3.031088e+01 2.500000e+02 0 0 0
42 1 1 1.000000e+00 0.000000e+00 0.000000e+00 0.000000e+00 -9.654858e-01 0.000000e+00 4.375000e+02 3.031088e+01 2.500000e+02 0 0 0
43 1 1 1.000000e+00 0.000000e+00 0.000000e+00 0.000000e+00 -6.828548e-01 0.000000e+00 4.725000e+02 3.031088e+01 2.500000e+02 0 0 0
44 1 1 1.000000e+00 0.000000e+00 0.000000e+00 0.000000e+00 -7.817789e-01 0.000000e+00 5.075000e+02 3.031088e+01 2.500000e+02 0 0 0
45 1 1 1.000000e+00 0.000000e+00 0.000000e+00 0.000000e+00 -7.983592e-01 0.000000e+00 5.425000e+02 3.031088e+01 2.500000e+02 0 0 0
46 1 1 1.000000e+00 0.000000e+00 0.000000e+00 0.000000e+00 -7.882347e-01 0.000000e+00 5.775000e+02 3.031088e+01 2.500000e+02 0 0 0
47 1 1 1.000000e+00 0.000000e+00 0.000000e+00 0.000000e+00 -4.795618e-01 0.000000e+00 6.125000e+02 3.031088e+01 2.500000e+02 0 0 0
48 1 1 1.000000e+00 0.000000e+00 0.000000e+00 0.000000e+00 -2.279632e-01 0.000000e+00 6.475000e+02 3.031088e+01 2.500000e+02 0 0 0
49 1 1 1.000000e+00 0.000000e+00 0.000000e+00 0.000000e+00 -2.801075e-01 0.000000e+00 6.825000e+02 3.031088e+01 2.500000e+02 0 0 0
50 1 1 1.000000e+00 0.000000e+00 0.000000e+00 0.000000e+00 2.599572e-01 0.000000e+00 7.175000e+02 3.031088e+01 2.500000e+02 0 0 0
51 1 1 1.000000e+00 0.000000e+00 0.000000e+00 0.000000e+00 -6.661353e-01 0.000000e+00 7.525000e+02 3.031088e+01 2.500000e+02 0 0 0
52 1 1 1.000000e+00 0.000000e+00 0.000000e+00 0.000000e+00 -3.697957e-01 0.000000e+00 7.875000e+02 3.031088e+01 2.500000e+02 0 0 0
53 1 1 1.000000e+00 0.000000e+00 0.000000e+00 0.000000e+00 -3.980134e-01 0.000000e+00 8.225000e+02 3.031088e+01 2.500000e+02 0 0 0
54 1 1 1.000000e+00 0.000000e+00 0.000000e+00 0.000000e+00 -5.626820e-01 0.000000e+00 8.575000e+02 3.031088e+01 2.500000e+02 0 0 0
55 1 1 1.000000e+00 0.000000e+00 0.000000e+00 0.000000e+00 -4.211234e-01 0.000000e+00 8.925000e+02 3.031088e+01 2.500000e+02 0 0 0
56 1 1 1.000000e+00 0.000000e+00 0.000000e+00 0.000000e+00 -6.013901e-01 0.000000e+00 9.275000e+02 3.031088e+01 2.500000e+02 0 0 0
57 1 1 1.000000e+00 0.000000e+00 0.000000e+00 0.000000e+00 -8.731213e-01 0.000000e+00 9.625000e+02 3.031088e+01 2.500000e+02 0 0 0
58 1 1 1.000000e+00 0.000000e+00 0.000000e+00 0.000000e+00 5.790432e-02 0.000000e+00 9.975000e+02 3.031088e+01 2.500000e+02 0 0 0
59 1 1 1.000000e+00 0.000000e+00 0.000000e+00 0.000000e+00 6.951579e-01 0.000000e+00 0.000000e+00 6.062175e+01 2.500000e+02 0 0 0
60 1 1 1.000000e+00 0.000000e+00 0.000000e+00 0.000000e+00 5.582153e-01 0.000000e+00 3.500000e+01 6.062175e+01 2.500000e+02 0 0 0
61 1 1 1.000000e+00 0.000000e+00 0.000000e+00 0.000000e+00 4.496919e-01 0.000000e+00 7.000000e+01 6.062175e+01 2.500000e+02 0 0 0
62 1 1 1.000000e+00 0.000000e+00 0.000000e+00 0.000000e+00 8.422870e-01 0.000000e+00 1.050000e+02 6.062175e+01 2.500000e+02 0 0 0
63 1 1 1.000000e+00 0.000000e+00 0.000000e+00 0.000000e+00 5.907696e-01 0.000000e+00 1.400000e+02 6.062175e+01 2.500000e+02 0 0 0
64 1 1 1.000000e+00 0.000000e+00 0.000000e+00 0.000000e+00 -9.864382e-01 0.000000e+00 1.750000e+02 6.062175e+01 2.500000e+02 0 0 0
65 1 1 1.000000e+00 0.000000e+00 0.000000e+00 0.000000e+00 4.346736e-01 0.000000e+00 2.100000e+02 6.062175e+01 2.500000e+02 0 0 0
66 1 1 1.000000e+00 0.000000e+00 0.000000e+00 0.000000e+00 -4.774051e-01 0.000000e+00 2.450000e+02 6.062175e+01 2.500000e+02 0 0 0
67 1 1 1.000000e+00 0.000000e+00 0.000000e+00 0.000000e+00 9.557532e-01 0.000000e+00 2.800000e+02 6.062175e+01 2.500000e+02 0 0 0
68 1 1 1.000000e+00 0.000000e+00 0.000000e+00 0.000000e+00 -8.931678e-01 0.000000e+00 3.150000e+02 6.062175e+01 2.500000e+02 0 0 0
69 1 1 1.000000e+00 0.000000e+00 0.000000e+00 0.000000e+00 -2.025004e-01 0.000000e+00 3.500000e+02 6.062175e+01 2.500000e+02 0 0 0
70 1 1 1.000000e+00 0.000000e+00 0.000000e+00 0.000000e+00 1.614867e-01 0.000000e+00 3.850000e+02 6.062175e+01 2.500000e+02 0 0 0
71 1 1 1.000000e+00 0.000000e+00 0.000000e+00 0.000000e+00 -4.267778e-01 0.000000e+00 4.200000e+02 6.062175e+01 2.500000e+02 0 0 0
72 1 1 1.000000e+00 0.000000e+00 0.000000e+00 0.000000e+00 4.503875e-02 0.000000e+00 4.550000e+02 6.062175e+01 2.500000e+02 0 0 0
73 1 1 1.000000e+00 0.000000e+00 0.000000e+00 0.000000e+00 -4.214602e-01 0.000000e+00 4.900000e+02 6.062175e+01 2.500000e+02 0 0 0
74 1 1 1.000000e+00 0.000000e+00 0.000000e+00 0.000000e+00 -5.307917e-01 0.000000e+00 5.250000e+02 6.062175e+01 2.500000e+02 0 0 0
75 1 1 1.000000e+00 0.000000e+00 0.000000e+00 0.000000e+00 7.527545e-01 0.000000e+00 5.600000e+02 6.062175e+01 2.500000e+02 0 0 0
76 1 1 1.000000e+00 0.000000e+00 0.000000e+00 0.000000e+00 8.858339e-01 0.000000e+00 5.950000e+02 6.062175e+01 2.500000e+02 0 0 0
77 1 1 1.000000e+00 0.000000e+00 0.000000e+00 0.000000e+00 -3.553435e-01 0.000000e+00 6.300000e+02 6.062175e+01 2.500000e+02 0 0 0
78 1 1 1.000000e+00 0.000000e+00 0.000000e+00 0.000000e+00 -7.034325e-02 0.000000e+00 6.650000e+02 6.062175e+01 2.500000e+02 0 0 0
79 1 1 1.000000e+00 0.000000e+00 0.000000e+00 0.000000e+00 2.053933e-01 0.000000e+00 7.000000e+02 6.062175e+01 2.500000e+02 0 0 0
80 1 1 1.000000e+00 0.000000e+00 0.000000e+00 0.000000e+00 9.586102e-01 0.000000e+00 7.350000e+02 6.062175e+01 2.500000e+02 0 0 0
81 1 1 1.000000e+00 0.000000e+00 0.000000e+00 0.000000e+00 2.849745e-01 0.000000e+00 7.700000e+02 6.062175e+01 2.500000e+02 0 0 0
82 1 1 1.000000e+00 0.000000e+00 0.000000e+00 0.000000e+00 -1.159080e-01 0.000000e+00 8.050000e+02 6.062175e+01 2.500000e+02 0 0 0
83 1 1 1.000000e+00 0.000000e+00 0.000000e+00 0.000000e+00 -8.900124e-02 0.000000e+00 8.400000e+02 6.062175e+01 2.500000e+02 0 0 0
84 1 1 1.000000e+00 0.000000e+00 0.000000e+00 0.000000e+00 -4.158111e-01 0.000000e+00 8.750000e+02 6.062175e+01 2.500000e+02 0 0 0
85 1 1 1.000000e+00 0.000000e+00 0.000000e+00 0.000000e+00 2.118434e-01 0.000000e+00 9.100000e+02 6.062175e+01 2.500000e+02 0 0 0
86 1 1 1.000000e+00 0.000000e+00 0.000000e+00 0.000000e+00 8.386285e-01 0.000000e+00 9.450000e+02 6.062175e+01 2.500000e+02 0 0 0
87 1 1 1.000000e+00 0.000000e+00 0.000000e+00 0.000000e+00 -8.240327e-01 0.000000e+00 9.800000e+02 6.062175e+01 2.500000e+02 0 0 0
88 1 1 1.000000e+00 0.000000e+00 0.000000e+00 0.000000e+00 4.526362e-01 0.000000e+00 1.750000e+01 9.093263e+01 2.500000e+02 0 0 0
89 1 1 1.000000e+00 0.000000e+00 0.000000e+00 0.000000e+00 7.505196e-01 0.000000e+00 5.250000e+01 9.093263e+01 2.500000e+02 0 0 0
90 1 1 1.000000e+00 0.000000e+00 0.000000e+00 0.000000e+00 -7.695283e-01 0.000000e+00 8.750000e+01 9.093263e+01 2.500000e+02 0 0 0
91 1 1 1.000000e+00 0.000000e+00 0.000000e+00 0.000000e+00 -8.330774e-01 0.000000e+00 1.225000e+02 9.093263e+01 2.500000e+02 0 0 0
92 1 1 1.000000e+00 0.000000e+00 0.000000e+00 0.000000e+00 8.149362e-02 0.000000e+00 1.575000e+02 9.093263e+01 2.500000e+02 0 0 0
93 1 1 1.000000e+00 0.000000e+00 0.000000e+00 0.000000e+00 8.804360e-01 0.000000e+00 1.925000e+02 9.093263e+01 2.500000e+02 0 0 0
94 1 1 1.000000e+00 0.000000e+00 0.000000e+00 0.000000e+00 -9.422289e-01 0.000000e+00 2.275000e+02 9.093263e+01 2.500000e+02 0 0 0
95 1 1 1.000000e+00 0.000000e+00 0.000000e+00 0.000000e+00 -9.151354e-01 0.000000e+00 2.625000e+02 9.093263e+01 2.500000e+02 0 0 0
96 1 1 1.000000e+00 0.000000e+00 0.000000e+00 0.000000e+00 8.319206e-01 0.000000e+00 2.975000e+02 9.093263e+01 2.500000e+02 0 0 0
97 1 1 1.000000e+00 0.000000e+00 0.000000e+00 0.000000e+00 -7.947492e-01 0.000000e+00 3.325000e+02 9.093263e+01 2.500000e+02 0 0 0
98 1 1 1.000000e+00 0.000000e+00 0.000000e+00 0.000000e+00 6.344735e-01 0.000000e+00 3.675000e+02 9.093263e+01 2.500000e+02 0 0 0
99 1 1 1.000000e+00 0.000000e+00 0.000000e+00 0.000000e+00 4.196539e-02 0.000000e+00 4.025000e+02 9.093263e+01 2.500000e+02 0 0 0
100 1 1 1.000000e+00 0.000000e+00 0.000000e+00 0.000000e+00 -8.970157e-02 0.000000e+00 4.375000e+02 9.093263e+01 2.500000e+02 0 0 0
101 1 1 1.000000e+00 0.000000e+00 0.000000e+00 0.000000e+00 9.061830e-02 0.000000e+00 4.725000e+02 9.093263e+01 2.500000e+02 0 0 0
102 1 1 1.000000e+00 0.000000e+00 0.000000e+00 0.000000e+00 -2.319900e-01 0.000000e+00 5.075000e+02 9.093263e+01 2.500000e+02 0 0 0
103 1 1 1.000000e+00 0.000000e+00 0.000000e+00 0.000000e+00 6.158222e-01 0.000000e+00 5.425000e+02 9.093263e+01 2.500000e+02 0 0 0
104 1 1 1.000000e+00 0.000000e+00 0.000000e+00 0.000000e+00 8.549074e-01 0.000000e+00 5.775000e+02 9.093263e+01 2.500000e+02 0 0 0
105 1 1 1.000000e+00 0.000000e+00 0.000000e+00 0.000000e+00 6.257364e-01 0.000000e+00 6.125000e+02 9.093263e+01 2.500000e+02 0 0 0
106 1 1 1.000000e+00 0.000000e+00 0.000000e+00 0.000000e+00 -8.032729e-01 0.000000e+00 6.475000e+02 9.093263e+01 2.500000e+02 0 0 0
107 1 1 1.000000e+00 0.000000e+00 0.000000e+00 0.000000e+00 -2.027795e-01 0.000000e+00 6.825000e+02 9.093263e+01 2.500000e+02 0 0 0
108 1 1 1.000000e+00 0.000000e+00 0.000000e+00 0.000000e+00 1.231450e-03 0.000000e+00 7.175000e+02 9.093263e+01 2.500000e+02 0 0 0
109 1 1 1.000000e+00 0.000000e+00 0.000000e+00 0.000000e+00 -9.906139e-02 0.000000e+00 7.525000e+02 9.093263e+01 2.500000e+02 0 0 0
110 1 1 1.000000e+00 0.000000e+00 0.000000e+00 0.000000e+00 5.297374e-01 0.000000e+00 7.875000e+02 9.093263e+01 2.500000e+02 0 0 0
111 1 1 1.000000e+00 0.000000e+00 0.000000e+00 0.000000e+00 7.481512e-01 0.000000e+00 8.225000e+02 9.093263e+01 2.500000e+02 0 0 0
112 1 1 1.000000e+00 0.000000e+00 0.000000e+00 0.000000e+00 -7.299046e-02 0.000000e+00 8.575000e+02 9.093263e+01 2.500000e+02 0 0 0
113 1 1 1.000000e+00 0.000000e+00 0.000000e+00 0.000000e+00 1.098252e-01 0.000000e+00 8.925000e+02 9.093263e+01 2.500000e+02 0 0 0
114 1 1 1.000000e+00 0.000000e+00 0.000000e+00 0.000000e+00 8.053707e-01 0.000000e+00 9.275000e+02 9.093263e+01 2.500000e+02 0 0 0
115 1 1 1.000000e+00 0.000000e+00 0.000000e+00 0.000000e+00 -8.169947e-01 0.000000e+00 9.625000e+02 9.093263e+01 2.500000e+02 0 0 0
116 1 1 1.000000e+00 0.000000e+00 0.000000e+00 0.000000e+00 -1.952405e-01 0.000000e+00 9.975000e+02 9.093263e+01 2.500000e+02 0 0 0
117 1 1 1.000000e+00 0.000000e+00 0.000000e+00 0.000000e+00 -1.158489e-01 0.000000e+00 0.000000e+00 1.212435e+02 2.500000e+02 0 0 0
118 1 1 1.000000e+00 0.000000e+00 0.000000e+00 0.000000e+00 -5.927766e-01 0.000000e+00 3.500000e+01 1.212435e+02 2.500000e+02 0 0 0
119 1 1 1.000000e+00 0.000000e+00 0.000000e+00 0.000000e+00 6.801761e-01 0.000000e+00 7.000000e+01 1.212435e+02 2.500000e+02 0 0 0
120 1 1 1.000000e+00 0.000000e+00 0.000000e+00 0.000000e+00 -1.466804e-01 0.000000e+00 1.050000e+02 1.212435e+02 2.500000e+02 0 0 0
121 1 1 1.000000e+00 0.000000e+00 0.000000e+00 0.000000e+00 1.642483e-01 0.000000e+00 1.400000e+02 1.212435e+02 2.500000e+02 0 0 0
122 1 1 1.000000e+00 0.000000e+00 0.000000e+00 0.000000e+00 -2.349006e-03 0.000000e+00 1.750000e+02 1.212435e+02 2.500000e+02 0 0 0
123 1 1 1.000000e+00 0.000000e+00 0.000000e+00 0.000000e+00 2.242344e-01 0.000000e+00 2.100000e+02 1.212435e+02 2.500000e+02 0 0 0
124 1 1 1.000000e+00 0.000000e+00 0.000000e+00 0.000000e+00 3.761076e-01 0.000000e+00 2.450000e+02 1.212435e+02 2.500000e+02 0 0 0
125 1 1 1.000000e+00 0.000000e+00 0.000000e+00 0.000000e+00 9.686396e-01 0.000000e+00 2.800000e+02 1.212435e+02 2.500000e+02 0 0 0
126 1 1 1.000000e+00 0.000000e+00 0.000000e+00 0.000000e+00 -2.675465e-01 0.000000e+00 3.150000e+02 1.212435e+02 2.500000e+02 0 0 0
127 1 1 1.000000e+00 0.000000e+00 0.000000e+00 0.000000e+00 9.735148e-01 0.000000e+00 3.500000e+02 1.212435e+02 2.500000e+02 0 0 0
128 1 1 1.000000e+00 0.000000e+00 0.000000e+00 0.000000e+00 -7.741533e-01 0.000000e+00 3.850000e+02 1.212435e+02 2.500000e+02 0 0 0
129 1 1 1.000000e+00 0.000000e+00 0.000000e+00 0.000000e+00 -2.177337e-01 0.000000e+00 4.200000e+02 1.212435e+02 2.500000e+02 0 0 0
130 1 1 1.000000e+00 0.000000e+00 0.000000e+00 0.000000e+00 -5.133213e-01 0.000000e+00 4.550000e+02 1.212435e+02 2.500000e+02 0 0 0
131 1 1 1.000000e+00 0.000000e+00 0.000000e+00 0.000000e+00 -9.775701e-01 0.000000e+00 4.900000e+02 1.212435e+02 2.500000e+02 0 0 0
132 1 1 1.000000e+00 0.000000e+00 0.000000e+00 0.000000e+00 -6.125989e-01 0.000000e+00 5.250000e+02 1.212435e+02 2.500000e+02 0 0 0
133 1 1 1.000000e+00 0.000000e+00 0.000000e+00 0.000000e+00 -9.488680e-01 0.000000e+00 5.600000e+02 1.212435e+02 2.500000e+02 0 0 0
134 1 1 1.000000e+00 0.000000e+00 0.000000e+00 0.000000e+00 2.925877e-01 0.000000e+00 5.950000e+02 1.212435e+02 2.500000e+02 0 0 0
135 1 1 1.000000e+00 0.000000e+00 0.000000e+00 0.000000e+00 7.733626e-01 0.000000e+00 6.300000e+02 1.212435e+02 2.500000e+02 0 0 0
136 1 1 1.000000e+00 0.000000e+00 0.000000e+00 0.000000e+00 5.150587e-01 0.000000e+00 6.650000e+02 1.212435e+02 2.500000e+02 0 0 0
137 1 1 1.000000e+00 0.000000e+00 0.000000e+00 0.000000e+00 2.566837e-01 0.000000e+00 7.000000e+02 1.212435e+02 2.500000e+02 0 0 0
138 1 1 1.000000e+00 0.000000e+00 0.000000e+00 0.000000e+00 7.156930e-01 0.000000e+00 7.350000e+02 1.212435e+02 2.500000e+02 0 0 0
139 1 1 1.000000e+00 0.000000e+00 0.000000e+00 0.000000e+00 -2.557474e-01 0.000000e+00 7.700000e+02 1.212435e+02 2.500000e+02 0 0 0
140 1 1 1.000000e+00 0.000000e+00 0.000000e+00 0.000000e+00 6.839133e-01 0.000000e+00 8.050000e+02 1.212435e+02 2.500000e+02 0 0 0
141 1 1 1.000000e+00 0.000000e+00 0.000000e+00 0.000000e+00 7.274192e-02 0.000000e+00 8.400000e+02 1.212435e+02 2.500000e+02 0 0 0
142 1 1 1.000000e+00 0.000000e+00 0.000000e+00 0.000000e+00 -6.212029e-01 0.000000e+00 8.750000e+02 1.212435e+02 2.500000e+02 0 0 0
143 1 1 1.000000e+00 0.000000e+00 0.000000e+00 0.000000e+00 2.672715e-01 0.000000e+00 9.100000e+02 1.212435e+02 2.500000e+02 0 0 0
144 1 1 1.000000e+00 0.000000e+00 0.000000e+00 0.000000e+00 -8.582945e-01 0.000000e+00 9.450000e+02 1.212435e+02 2.500000e+02 0 0 0
145 1 1 1.000000e+00 0.000000e+00 0.000000e+00 0.000000e+00 4.401026e-01 0.000000e+00 9.800000e+02 1.212435e+02 2.500000e+02 0 0 0
146 1 1 1.000000e+00 0.000000e+00 0.000000e+00 0.000000e+00 -3.337280e-01 0.000000e+00 1.750000e+01 1.515544e+02 2.500000e+02 0 0 0
147 1 1 1.000000e+00 0.000000e+00 0.000000e+00 0.000000e+00 -8.770244e-03 0.000000e+00 5.250000e+01 1.515544e+02 2.500000e+02 0 0 0
148 1 1 1.000000e+00 0.000000e+00 0.000000e+00 0.000000e+00 -3.535992e-01 0.000000e+00 8.750000e+01 1.515544e+02 2.500000e+02 0 0 0
149 1 1 1.000000e+00 0.000000e+00 0.000000e+00 0.000000e+00 -9.109694e-01 0.000000e+00 1.225000e+02 1.515544e+02 2.500000e+02 0 0 0
150 1 1 1.000000e+00 0.000000e+00 0.000000e+00 0.000000e+00 -9.613476e-01 0.000000e+00 1.575000e+02 1.515544e+02 2.500000e+02 0 0 0
151 1 1 1.000000e+00 0.000000e+00 0.000000e+00 0.000000e+00 -8.777191e-01 0.000000e+00 1.925000e+02 1.515544e+02 2.500000e+02 0 0 0
152 1 1 1.000000e+00 0.000000e+00 0.000000e+00 0.000000e+00 -7.259951e-01 0.000000e+00 2.275000e+02 1.515544e+02 2.500000e+02 0 0 0
153 1 1 1.000000e+00 0.000000e+00 0.000000e+00 0.000000e+00 -4.801584e-01 0.000000e+00 2.625000e+02 1.515544e+02 2.500000e+02 0 0 0
154 1 1 1.000000e+00 0.000000e+00 0.000000e+00 0.000000e+00 -4.653458e-02 0.000000e+00 2.975000e+02 1.515544e+02 2.500000e+02 0 0 0
155 1 1 1.000000e+00 0.000000e+00 0.000000e+00 0.000000e+00 1.356426e-01 0.000000e+00 3.325000e+02 1.515544e+02 2.500000e+02 0 0 0
156 1 1 1.000000e+00 0.000000e+00 0.000000e+00 0.000000e+00 3.712943e-01 0.000000e+00 3.675000e+02 1.515544e+02 2.500000e+02 0 0 0
157 1 1 1.000000e+00 0.000000e+00 0.000000e+00 0.000000e+00 1.189121e-01 0.000000e+00 4.025000e+02 1.515544e+02 2.500000e+02 0 0 0
158 1 1 1.000000e+00 0.000000e+00 0.000000e+00 0.000000e+00 -9.047997e-01 0.000000e+00 4.375000e+02 1.515544e+02 2.500000e+02 0 0 0
159 1 1 1.000000e+00 0.000000e+00 0.000000e+00 0.000000e+00 1.681932e-01 0.000000e+00 4.725000e+02 1.515544e+02 2.500000e+02 0 0 0
160 1 1 1.000000e+00 0.000000e+00 0.000000e+00 0.000000e+00 2.450020e-01 0.000000e+00 5.075000e+02 1.515544e+02 2.500000e+02 0 0 0
161 1 1 1.000000e+00 0.000000e+00 0.000000e+00 0.000000e+00 -8.504042e-01 0.000000e+00 5.425000e+02 1.515544e+02 2.500000e+02 0 0 0
162 1 1 1.000000e+00 0.000000e+00 0.000000e+00 0.000000e+00 5.542743e-01 0.000000e+00 5.775000e+02 1.515544e+02 2.500000e+02 0 0 0
163 1 1 1.000000e+00 0.000000e+00 0.000000e+00 0.000000e+00 -3.507999e-01 0.000000e+00 6.125000e+02 1.515544e+02 2.500000e+02 0 0 0
164 1 1 1.000000e+00 0.000000e+00 0.000000e+00 0.000000e+00 2.808766e-01 0.000000e+00 6.475000e+02 1.515544e+02 2.500000e+02 0 0 0
165 1 1 1.000000e+00 0.000000e+00 0.000000e+00 0.000000e+00 3.127934e-01 0.000000e+00 6.825000e+02 1.515544e+02 2.500000e+02 0 0 0
166 1 1 1.000000e+00 0.000000e+00 0.000000e+00 0.000000e+00 7.371239e-01 0.000000e+00 7.175000e+02 1.515544e+02 2.500000e+02 0 0 0
167 1 1 1.000000e+00 0.000000e+00 0.000000e+00 0.000000e+00 -2.974877e-01 0.000000e+00 7.525000e+02 1.515544e+02 2.500000e+02 0 0 0
168 1 1 1.000000e+00 0.000000e+00 0.000000e+00 0.000000e+00 -6.159953e-01 0.000000e+00 7.875000e+02 1.515544e+02 2.500000e+02 0 0 0
169 1 1 1.000000e+00 0.000000e+00 0.000000e+00 0.000000e+00 1.001264e+00 0.000000e+00 8.225000e+02 1.515544e+02 2.500000e+02 0 0 0
170 1 1 1.000000e+00 0.000000e+00 0.000000e+00 0.000000e+00 -9.568165e-01 0.000000e+00 8.575000e+02 1.515544e+02 2.500000e+02 0 0 0
171 1 1 1.000000e+00 0.000000e+00 0.000000e+00 0.000000e+00 -1.002870e-02 0.000000e+00 8.925000e+02 1.515544e+02 2.500000e+02 0 0 0
172 1 1 1.000000e+00 0.000000e+00 0.000000e+00 0.000000e+00 -4.947844e-01 0.000000e+00 9.275000e+02 1.515544e+02 2.500000e+02 0 0 0
173 1 1 1.000000e+00 0.000000e+00 0.000000e+00 0.000000e+00 -2.307438e-01 0.000000e+00 9.625000e+02 1.515544e+02 2.500000e+02 0 0 0
174 1 1 1.000000e+00 0.000000e+00 0.000000e+00 0.000000e+00 -9.333916e-01 0.000000e+00 9.975000e+02 1.515544e+02 2.500000e+02 0 0 0
175 1 1 1.000000e+00 0.000000e+00 0.000000e+00 0.000000e+00 -4.743124e-01 0.000000e+00 0.000000e+00 1.818653e+02 2.500000e+02 0 0 0
176 1 1 1.000000e+00 0.000000e+00 0.000000e+00 0.000000e+00 2.772526e-01 0.000000e+00 3.500000e+01 1.818653e+02 2.500000e+02 0 0 0
177 1 1 1.000000e+00 0.000000e+00 0.000000e+00 0.000000e+00 7.099849e-01 0.000000e+00 7.000000e+01 1.818653e+02 2.500000e+02 0 0 0
178 1 1 1.000000e+00 0.000000e+00 0.000000e+00 0.000000e+00 7.006781e-01 0.000000e+00 1.050000e+02 1.818653e+02 2.500000e+02 0 0 0
179 1 1 1.000000e+00 0.000000e+00 0.000000e+00 0.000000e+00 -8.256221e-01 0.000000e+00 1.400000e+02 1.818653e+02 2.500000e+02 0 0 0
180 1 1 1.000000e+00 0.000000e+00 0.000000e+00 0.000000e+00 7.050684e-01 0.000000e+00 1.750000e+02 1.818653e+02 2.500000e+02 0 0 0
181 1 1 1.000000e+00 0.000000e+00 0.000000e+00 0.000000e+00 1.658114e-01 0.000000e+00 2.100000e+02 1.818653e+02 2.500000e+02 0 0 0
182 1 1 1.000000e+00 0.000000e+00 0.000000e+00 0.000000e+00 -7.642226e-01 0.000000e+00 2.450000e+02 1.818653e+02 2.500000e+02 0 0 0
183 1 1 1.000000e+00 0.000000e+00 0.000000e+00 0.000000e+00 -1.276645e-01 0.000000e+00 2.800000e+02 1.818653e+02 2.500000e+02 0 0 0
184 1 1 1.000000e+00 0.000000e+00 0.000000e+00 0.000000e+00 2.833655e-01 0.000000e+00 3.150000e+02 1.818653e+02 2.500000e+02 0 0 0
185 1 1 1.000000e+00 0.000000e+00 0.000000e+00 0.000000e+00 -3.667398e-01 0.000000e+00 3.500000e+02 1.818653e+02 2.500000e+02 0 0 0
186 1 1 1.000000e+00 0.000000e+00 0.000000e+00 0.000000e+00 6.903854e-01 0.000000e+00 3.850000e+02 1.818653e+02 2.500000e+02 0 0 0
187 1 1 1.000000e+00 0.000000e+00 0.000000e+00 0.000000e+00 7.625140e-01 0.000000e+00 4.200000e+02 1.818653e+02 2.500000e+02 0 0 0
188 1 1 1.000000e+00 0.000000e+00 0.000000e+00 0.000000e+00 -1.104423e-01 0.000000e+00 4.550000e+02 1.818653e+02 2.500000e+02 0 0 0
189 1 1 1.000000e+00 0.000000e+00 0.000000e+00 0.000000e+00 4.345259e-01 0.000000e+00 4.900000e+02 1.818653e+02 2.500000e+02 0 0 0
190 1 1 1.000000e+00 0.000000e+00 0.000000e+00 0.000000e+00 -6.779375e-01 0.000000e+00 5.250000e+02 1.818653e+02 2.500000e+02 0 0 0
191 1 1 1.000000e+00 0.000000e+00 0.000000e+00 0.000000e+00 3.953696e-01 0.000000e+00 5.600000e+02 1.818653e+02 2.500000e+02 0 0 0
192 1 1 1.000000e+00 0.000000e+00 0.000000e+00 0.000000e+00 1.317354e-01 0.000000e+00 5.950000e+02 1.818653e+02 2.500000e+02 0 0 0
193 1 1 1.000000e+00 0.000000e+00 0.000000e+00 0.000000e+00 -7.844497e-01 0.000000e+00 6.300000e+02 1.818653e+02 2.500000e+02 0 0 0
194 1 1 1.000000e+00 0.000000e+00 0.000000e+00 0.000000e+00 -7.883462e-01 0.000000e+00 6.650000e+02 1.818653e+02 2.500000e+02 0 0 0
195 1 1 1.000000e+00 0.000000e+00 0.000000e+00 0.000000e+00 -5.489808e-01 0.000000e+00 7.000000e+02 1.818653e+02 2.500000e+02 0 0 0
196 1 1 1.000000e+00 0.000000e+00 0.000000e+00 0.000000e+00 5.955935e-01 0.000000e+00 7.350000e+02 1.818653e+02 2.500000e+02 0 0 0
197 1 1 1.000000e+00 0.000000e+00 0.000000e+00 0.000000e+00 -8.221428e-01 0.000000e+00 7.700000e+02 1.818653e+02 2.500000e+02 0 0 0
198 1 1 1.000000e+00 0.000000e+00 0.000000e+00 0.000000e+00 1.562982e-02 0.000000e+00 8.050000e+02 1.818653e+02 2.500000e+02 0 0 0
199 1 1 1.000000e+00 0.000000e+00 0.000000e+00 0.000000e+00 2.419301e-01 0.000000e+00 8.400000e+02 1.818653e+02 2.500000e+02 0 0 0
200 1 1 1.000000e+00 0.000000e+00 0.000000e+00 0.000000e+00 7.690808e-01 0.000000e+00 8.750000e+02 1.818653e+02 2.500000e+02 0 0 0
201 1 1 1.000000e+00 0.000000e+00 0.000000e+00 0.000000e+00 -1.950014e-01 0.000000e+00 9.100000e+02 1.818653e+02 2.500000e+02 0 0 0
202 1 1 1.000000e+00 0.000000e+00 0.000000e+00 0.000000e+00 3.100456e-01 0.000000e+00 9.450000e+02 1.818653e+02 2.500000e+02 0 0 0
203 1 1 1.000000e+00 0.000000e+00 0.000000e+00 0.000000e+00 -6.439359e-01 0.000000e+00 9.800000e+02 1.818653e+02 2.500000e+02 0 0 0
204 1 1 1.000000e+00 0.000000e+00 0.000000e+00 0.000000e+00 1.095034e-01 0.000000e+00 1.750000e+01 2.121761e+02 2.500000e+02 0 0 0
205 1 1 1.000000e+00 0.000000e+00 0.000000e+00 0.000000e+00 -7.765572e-01 0.000000e+00 5.250000e+01 2.121761e+02 2.500000e+02 0 0 0
206 1 1 1.000000e+00 0.000000e+00 0.000000e+00 0.000000e+00 -1.728235e-01 0.000000e+00 8.750000e+01 2.121761e+02 2.500000e+02 0 0 0
207 1 1 1.000000e+00 0.000000e+00 0.000000e+00 0.000000e+00 -5.450302e-01 0.000000e+00 1.225000e+02 2.121761e+02 2.500000e+02 0 0 0
208 1 1 1.000000e+00 0.000000e+00 0.000000e+00 0.000000e+00 -5.283329e-01 0.000000e+00 1.575000e+02 2.121761e+02 2.500000e+02 0 0 0
209 1 1 1.000000e+00 0.000000e+00 0.000000e+00 0.000000e+00 -9.595715e-01 0.000000e+00 1.925000e+02 2.121761e+02 2.500000e+02 0 0 0
210 1 1 1.000000e+00 0.000000e+00 0.000000e+00 0.000000e+00 -3.140477e-01 0.000000e+00 2.275000e+02 2.121761e+02 2.500000e+02 0 0 0
211 1 1 1.000000e+00 0.000000e+00 0.000000e+00 0.000000e+00 -9.058485e-01 0.000000e+00 2.625000e+02 2.121761e+02 2.500000e+02 0 0 0
212 1 1 1.000000e+00 0.000000e+00 0.000000e+00 0.000000e+00 4.022015e-01 0.000000e+00 2.975000e+02 2.121761e+02 2.500000e+02 0 0 0
213 1 1 1.000000e+00 0.000000e+00 0.000000e+00 0.000000e+00 7.615517e-01 0.000000e+00 3.325000e+02 2.121761e+02 2.500000e+02 0 0 0
214 1 1 1.000000e+00 0.000000e+00 0.000000e+00 0.000000e+00 -6.492071e-01 0.000000e+00 3.675000e+02 2.121761e+02 2.500000e+02 0 0 0
215 1 1 1.000000e+00 0.000000e+00 0.000000e+00 0.000000e+00 7.488227e-01 0.000000e+00 4.025000e+02 2.121761e+02 2.500000e+02 0 0 0
216 1 1 1.000000e+00 0.000000e+00 0.000000e+00 0.000000e+00 -2.423025e-01 0.000000e+00 4.375000e+02 2.121761e+02 2.500000e+02 0 0 0
217 1 1 1.000000e+00 0.000000e+00 0.000000e+00 0.000000e+00 6.471508e-01 0.000000e+00 4.725000e+02 2.121761e+02 2.500000e+02 0 0 0
218 1 1 1.000000e+00 0.000000e+00 0.000000e+00 0.000000e+00 4.138241e-01 0.000000e+00 5.075000e+02 2.121761e+02 2.500000e+02 0 0 0
219 1 1 1.000000e+00 0.000000e+00 0.000000e+00 0.000000e+00 9.764439e-01 0.000000e+00 5.425000e+02 2.121761e+02 2.500000e+02 0 0 0
220 1 1 1.000000e+00 0.000000e+00 0.000000e+00 0.000000e+00 -2.297717e-01 0.000000e+00 5.775000e+02 2.121761e+02 2.500000e+02 0 0 0
221 1 1 1.000000e+00 0.000000e+00 0.000000e+00 0.000000e+00 -4.612076e-01 0.000000e+00 6.125000e+02 2.121761e+02 2.500000e+02 0 0 0
222 1 1 1.000000e+00 0.000000e+00 0.000000e+00 0.000000e+00 2.922593e-01 0.000000e+00 6.475000e+02 2.121761e+02 2.500000e+02 0 0 0
223 1 1 1.000000e+00 0.000000e+00 0.000000e+00 0.000000e+00 -1.045231e-01 0.000000e+00 6.825000e+02 2.121761e+02 2.500000e+02 0 0 0
224 1 1 1.000000e+00 0.000000e+00 0.000000e+00 0.000000e+00 -9.908433e-01 0.000000e+00 7.175000e+02 2.121761e+02 2.500000e+02 0 0 0
225 1 1 1.000000e+00 0.000000e+00 0.000000e+00 0.000000e+00 6.891650e-01 0.000000e+00 7.525000e+02 2.121761e+02 2.500000e+02 0 0 0
226 1 1 1.000000e+00 0.000000e+00 0.000000e+00 0.000000e+00 8.716620e-01 0.000000e+00 7.875000e+02 2.121761e+02 2.500000e+02 0 0 0