BD data file

2443 atoms
718 bonds
2496 angles
0 dihedrals
0 impropers

15 atom types
30 bond types
104 angle types
0 dihedral types
0 improper types

0.000000e+00 1.500000e+03 xlo xhi
0.000000e+00 1.500000e+03 ylo yhi
0.000000e+00 2.000000e+03 zlo zhi

Masses

1 1.000000e+00
2 1.000000e+00
3 1.000000e+00
4 1.000000e+00
5 1.000000e+00
6 1.000000e+00
7 1.000000e+00
8 1.000000e+00
9 1.000000e+00
10 1.000000e+00
11 1.000000e+00
12 1.000000e+00
13 1.000000e+00
14 1.000000e+00
15 1.000000e+00

Atoms

1 1 1 1.000000e+00 0.000000e+00 0.000000e+00 0.000000e+00 -5.520755e-01 0.000000e+00 0.000000e+00 0.000000e+00 1.000000e+03 0 0 0
2 1 1 1.000000e+00 0.000000e+00 0.000000e+00 0.000000e+00 7.407777e-01 0.000000e+00 3.500000e+01 0.000000e+00 1.000000e+03 0 0 0
3 1 1 1.000000e+00 0.000000e+00 0.000000e+00 0.000000e+00 5.726193e-01 0.000000e+00 7.000000e+01 0.000000e+00 1.000000e+03 0 0 0
4 1 1 1.000000e+00 0.000000e+00 0.000000e+00 0.000000e+00 -1.595034e-01 0.000000e+00 1.050000e+02 0.000000e+00 1.000000e+03 0 0 0
5 1 1 1.000000e+00 0.000000e+00 0.000000e+00 0.000000e+00 -1.287668e-01 0.000000e+00 1.400000e+02 0.000000e+00 1.000000e+03 0 0 0
6 1 1 1.000000e+00 0.000000e+00 0.000000e+00 0.000000e+00 4.234782e-01 0.000000e+00 1.750000e+02 0.000000e+00 1.000000e+03 0 0 0
7 1 1 1.000000e+00 0.000000e+00 0.000000e+00 0.000000e+00 -7.707342e-01 0.000000e+00 2.100000e+02 0.000000e+00 1.000000e+03 0 0 0
8 1 1 1.000000e+00 0.000000e+00 0.000000e+00 0.000000e+00 -5.816586e-01 0.000000e+00 2.450000e+02 0.000000e+00 1.000000e+03 0 0 0
9 1 1 1.000000e+00 0.000000e+00 0.000000e+00 0.000000e+00 -7.214856e-01 0.000000e+00 2.800000e+02 0.000000e+00 1.000000e+03 0 0 0
10 1 1 1.000000e+00 0.000000e+00 0.000000e+00 0.000000e+00 -4.267622e-01 0.000000e+00 3.150000e+02 0.000000e+00 1.000000e+03 0 0 0
11 1 1 1.000000e+00 0.000000e+00 0.000000e+00 0.000000e+00 -6.693175e-01 0.000000e+00 3.500000e+02 0.000000e+00 1.000000e+03 0 0 0
12 1 1 1.000000e+00 0.000000e+00 0.000000e+00 0.000000e+00 6.785581e-01 0.000000e+00 3.850000e+02 0.000000e+00 1.000000e+03 0 0 0
13 1 1 1.000000e+00 0.000000e+00 0.000000e+00 0.000000e+00 2.086723e-01 0.000000e+00 4.200000e+02 0.000000e+00 1.000000e+03 0 0 0
14 1 1 1.000000e+00 0.000000e+00 0.000000e+00 0.000000e+00 5.601243e-01 0.000000e+00 4.550000e+02 0.000000e+00 1.000000e+03 0 0 0
15 1 1 1.000000e+00 0.000000e+00 0.000000e+00 0.000000e+00 -5.396542e-01 0.000000e+00 4.900000e+02 0.000000e+00 1.000000e+03 0 0 0
16 1 1 1.000000e+00 0.000000e+00 0.000000e+00 0.000000e+00 -3.334365e-01 0.000000e+00 5.250000e+02 0.000000e+00 1.000000e+03 0 0 0
17 1 1 1.000000e+00 0.000000e+00 0.000000e+00 0.000000e+00 -9.611474e-01 0.000000e+00 5.600000e+02 0.000000e+00 1.000000e+03 0 0 0
18 1 1 1.000000e+00 0.000000e+00 0.000000e+00 0.000000e+00 -6.185688e-01 0.000000e+00 5.950000e+02 0.000000e+00 1.000000e+03 0 0 0
19 1 1 1.000000e+00 0.000000e+00 0.000000e+00 0.000000e+00 -7.093796e-01 0.000000e+00 6.300000e+02 0.000000e+00 1.000000e+03 0 0 0
20 1 1 1.000000e+00 0.000000e+00 0.000000e+00 0.000000e+00 -4.428150e-01 0.000000e+00 6.650000e+02 0.000000e+00 1.000000e+03 0 0 0
21 1 1 1.000000e+00 0.000000e+00 0.000000e+00 0.000000e+00 -1.884872e-01 0.000000e+00 7.000000e+02 0.000000e+00 1.000000e+03 0 0 0
22 1 1 1.000000e+00 0.000000e+00 0.000000e+00 0.000000e+00 7.380589e-01 0.000000e+00 7.350000e+02 0.000000e+00 1.000000e+03 0 0 0
23 1 1 1.000000e+00 0.000000e+00 0.000000e+00 0.000000e+00 2.869802e-01 0.000000e+00 7.700000e+02 0.000000e+00 1.000000e+03 0 0 0
24 1 1 1.000000e+00 0.000000e+00 0.000000e+00 0.000000e+00 8.727488e-01 0.000000e+00 8.050000e+02 0.000000e+00 1.000000e+03 0 0 0
25 1 1 1.000000e+00 0.000000e+00 0.000000e+00 0.000000e+00 9.815273e-01 0.000000e+00 8.400000e+02 0.000000e+00 1.000000e+03 0 0 0
26 1 1 1.000000e+00 0.000000e+00 0.000000e+00 0.000000e+00 -2.485586e-01 0.000000e+00 8.750000e+02 0.000000e+00 1.000000e+03 0 0 0
27 1 1 1.000000e+00 0.000000e+00 0.000000e+00 0.000000e+00 2.255012e-01 0.000000e+00 9.100000e+02 0.000000e+00 1.000000e+03 0 0 0
28 1 1 1.000000e+00 0.000000e+00 0.000000e+00 0.000000e+00 6.075043e-01 0.000000e+00 9.450000e+02 0.000000e+00 1.000000e+03 0 0 0
29 1 1 1.000000e+00 0.000000e+00 0.000000e+00 0.000000e+00 4.804828e-01 0.000000e+00 9.800000e+02 0.000000e+00 1.000000e+03 0 0 0
30 1 1 1.000000e+00 0.000000e+00 0.000000e+00 0.000000e+00 2.194490e-02 0.000000e+00 1.015000e+03 0.000000e+00 1.000000e+03 0 0 0
31 1 1 1.000000e+00 0.000000e+00 0.000000e+00 0.000000e+00 2.378354e-01 0.000000e+00 1.050000e+03 0.000000e+00 1.000000e+03 0 0 0
32 1 1 1.000000e+00 0.000000e+00 0.000000e+00 0.000000e+00 6.388329e-01 0.000000e+00 1.085000e+03 0.000000e+00 1.000000e+03 0 0 0
33 1 1 1.000000e+00 0.000000e+00 0.000000e+00 0.000000e+00 -2.482360e-01 0.000000e+00 1.120000e+03 0.000000e+00 1.000000e+03 0 0 0
34 1 1 1.000000e+00 0.000000e+00 0.000000e+00 0.000000e+00 1.414362e-01 0.000000e+00 1.155000e+03 0.000000e+00 1.000000e+03 0 0 0
35 1 1 1.000000e+00 0.000000e+00 0.000000e+00 0.000000e+00 -8.189058e-01 0.000000e+00 1.190000e+03 0.000000e+00 1.000000e+03 0 0 0
36 1 1 1.000000e+00 0.000000e+00 0.000000e+00 0.000000e+00 2.566991e-01 0.000000e+00 1.225000e+03 0.000000e+00 1.000000e+03 0 0 0
37 1 1 1.000000e+00 0.000000e+00 0.000000e+00 0.000000e+00 -6.418705e-01 0.000000e+00 1.260000e+03 0.000000e+00 1.000000e+03 0 0 0
38 1 1 1.000000e+00 0.000000e+00 0.000000e+00 0.000000e+00 3.648498e-01 0.000000e+00 1.295000e+03 0.000000e+00 1.000000e+03 0 0 0
39 1 1 1.000000e+00 0.000000e+00 0.000000e+00 0.000000e+00 6.515297e-01 0.000000e+00 1.330000e+03 0.000000e+00 1.000000e+03 0 0 0
40 1 1 1.000000e+00 0.000000e+00 0.000000e+00 0.000000e+00 8.274047e-01 0.000000e+00 1.365000e+03 0.000000e+00 1.000000e+03 0 0 0
41 1 1 1.000000e+00 0.000000e+00 0.000000e+00 0.000000e+00 -9.681802e-01 0.000000e+00 1.400000e+03 0.000000e+00 1.000000e+03 0 0 0
42 1 1 1.000000e+00 0.000000e+00 0.000000e+00 0.000000e+00 -7.488123e-01 0.000000e+00 1.435000e+03 0.000000e+00 1.000000e+03 0 0 0
43 1 1 1.000000e+00 0.000000e+00 0.000000e+00 0.000000e+00 -1.974751e-01 0.000000e+00 1.470000e+03 0.000000e+00 1.000000e+03 0 0 0
44 1 1 1.000000e+00 0.000000e+00 0.000000e+00 0.000000e+00 3.783072e-01 0.000000e+00 1.750000e+01 3.031088e+01 1.000000e+03 0 0 0
45 1 1 1.000000e+00 0.000000e+00 0.000000e+00 0.000000e+00 5.398451e-01 0.000000e+00 5.250000e+01 3.031088e+01 1.000000e+03 0 0 0
46 1 1 1.000000e+00 0.000000e+00 0.000000e+00 0.000000e+00 -5.422403e-01 0.000000e+00 8.750000e+01 3.031088e+01 1.000000e+03 0 0 0
47 1 1 1.000000e+00 0.000000e+00 0.000000e+00 0.000000e+00 5.762454e-01 0.000000e+00 1.225000e+02 3.031088e+01 1.000000e+03 0 0 0
48 1 1 1.000000e+00 0.000000e+00 0.000000e+00 0.000000e+00 -3.604901e-01 0.000000e+00 1.575000e+02 3.031088e+01 1.000000e+03 0 0 0
49 1 1 1.000000e+00 0.000000e+00 0.000000e+00 0.000000e+00 7.646456e-01 0.000000e+00 1.925000e+02 3.031088e+01 1.000000e+03 0 0 0
50 1 1 1.000000e+00 0.000000e+00 0.000000e+00 0.000000e+00 2.647773e-02 0.000000e+00 2.275000e+02 3.031088e+01 1.000000e+03 0 0 0
51 1 1 1.000000e+00 0.000000e+00 0.000000e+00 0.000000e+00 -8.952706e-01 0.000000e+00 2.625000e+02 3.031088e+01 1.000000e+03 0 0 0
52 1 1 1.000000e+00 0.000000e+00 0.000000e+00 0.000000e+00 9.075110e-01 0.000000e+00 2.975000e+02 3.031088e+01 1.000000e+03 0 0 0
53 1 1 1.000000e+00 0.000000e+00 0.000000e+00 0.000000e+00 -3.135579e-01 0.000000e+00 3.325000e+02 3.031088e+01 1.000000e+03 0 0 0
54 1 1 1.000000e+00 0.000000e+00 0.000000e+00 0.000000e+00 2.669566e-01 0.000000e+00 3.675000e+02 3.031088e+01 1.000000e+03 0 0 0
55 1 1 1.000000e+00 0.000000e+00 0.000000e+00 0.000000e+00 6.776910e-01 0.000000e+00 4.025000e+02 3.031088e+01 1.000000e+03 0 0 0
56 1 1 1.000000e+00 0.000000e+00 0.000000e+00 0.000000e+00 5.918197e-01 0.000000e+00 4.375000e+02 3.031088e+01 1.000000e+03 0 0 0
57 1 1 1.000000e+00 0.000000e+00 0.000000e+00 0.000000e+00 -5.434486e-01 0.000000e+00 4.725000e+02 3.031088e+01 1.000000e+03 0 0 0
58 1 1 1.000000e+00 0.000000e+00 0.000000e+00 0.000000e+00 7.403148e-01 0.000000e+00 5.075000e+02 3.031088e+01 1.000000e+03 0 0 0
59 1 1 1.000000e+00 0.000000e+00 0.000000e+00 0.000000e+00 3.459994e-01 0.000000e+00 5.425000e+02 3.031088e+01 1.000000e+03 0 0 0
60 1 1 1.000000e+00 0.000000e+00 0.000000e+00 0.000000e+00 1.336315e-01 0.000000e+00 5.775000e+02 3.031088e+01 1.000000e+03 0 0 0
61 1 1 1.000000e+00 0.000000e+00 0.000000e+00 0.000000e+00 -6.805759e-01 0.000000e+00 6.125000e+02 3.031088e+01 1.000000e+03 0 0 0
62 1 1 1.000000e+00 0.000000e+00 0.000000e+00 0.000000e+00 7.641785e-01 0.000000e+00 6.475000e+02 3.031088e+01 1.000000e+03 0 0 0
63 1 1 1.000000e+00 0.000000e+00 0.000000e+00 0.000000e+00 5.671931e-01 0.000000e+00 6.825000e+02 3.031088e+01 1.000000e+03 0 0 0
64 1 1 1.000000e+00 0.000000e+00 0.000000e+00 0.000000e+00 -4.433277e-01 0.000000e+00 7.175000e+02 3.031088e+01 1.000000e+03 0 0 0
65 1 1 1.000000e+00 0.000000e+00 0.000000e+00 0.000000e+00 2.531077e-01 0.000000e+00 7.525000e+02 3.031088e+01 1.000000e+03 0 0 0
66 1 1 1.000000e+00 0.000000e+00 0.000000e+00 0.000000e+00 1.216538e-01 0.000000e+00 7.875000e+02 3.031088e+01 1.000000e+03 0 0 0
67 1 1 1.000000e+00 0.000000e+00 0.000000e+00 0.000000e+00 5.903853e-01 0.000000e+00 8.225000e+02 3.031088e+01 1.000000e+03 0 0 0
68 1 1 1.000000e+00 0.000000e+00 0.000000e+00 0.000000e+00 -2.639532e-01 0.000000e+00 8.575000e+02 3.031088e+01 1.000000e+03 0 0 0
69 1 1 1.000000e+00 0.000000e+00 0.000000e+00 0.000000e+00 3.140899e-01 0.000000e+00 8.925000e+02 3.031088e+01 1.000000e+03 0 0 0
70 1 1 1.000000e+00 0.000000e+00 0.000000e+00 0.000000e+00 -1.936250e-01 0.000000e+00 9.275000e+02 3.031088e+01 1.000000e+03 0 0 0
71 1 1 1.000000e+00 0.000000e+00 0.000000e+00 0.000000e+00 3.822287e-01 0.000000e+00 9.625000e+02 3.031088e+01 1.000000e+03 0 0 0
72 1 1 1.000000e+00 0.000000e+00 0.000000e+00 0.000000e+00 -9.659450e-01 0.000000e+00 9.975000e+02 3.031088e+01 1.000000e+03 0 0 0
73 1 1 1.000000e+00 0.000000e+00 0.000000e+00 0.000000e+00 3.908109e-01 0.000000e+00 1.032500e+03 3.031088e+01 1.000000e+03 0 0 0
74 1 1 1.000000e+00 0.000000e+00 0.000000e+00 0.000000e+00 -3.330838e-01 0.000000e+00 1.067500e+03 3.031088e+01 1.000000e+03 0 0 0
75 1 1 1.000000e+00 0.000000e+00 0.000000e+00 0.000000e+00 -2.847449e-01 0.000000e+00 1.102500e+03 3.031088e+01 1.000000e+03 0 0 0
76 1 1 1.000000e+00 0.000000e+00 0.000000e+00 0.000000e+00 5.166545e-01 0.000000e+00 1.137500e+03 3.031088e+01 1.000000e+03 0 0 0
77 1 1 1.000000e+00 0.000000e+00 0.000000e+00 0.000000e+00 7.957480e-02 0.000000e+00 1.172500e+03 3.031088e+01 1.000000e+03 0 0 0
78 1 1 1.000000e+00 0.000000e+00 0.000000e+00 0.000000e+00 5.631924e-01 0.000000e+00 1.207500e+03 3.031088e+01 1.000000e+03 0 0 0
79 1 1 1.000000e+00 0.000000e+00 0.000000e+00 0.000000e+00 -6.064719e-01 0.000000e+00 1.242500e+03 3.031088e+01 1.000000e+03 0 0 0
80 1 1 1.000000e+00 0.000000e+00 0.000000e+00 0.000000e+00 -3.946217e-01 0.000000e+00 1.277500e+03 3.031088e+01 1.000000e+03 0 0 0
81 1 1 1.000000e+00 0.000000e+00 0.000000e+00 0.000000e+00 6.627869e-01 0.000000e+00 1.312500e+03 3.031088e+01 1.000000e+03 0 0 0
82 1 1 1.000000e+00 0.000000e+00 0.000000e+00 0.000000e+00 -2.727538e-01 0.000000e+00 1.347500e+03 3.031088e+01 1.000000e+03 0 0 0
83 1 1 1.000000e+00 0.000000e+00 0.000000e+00 0.000000e+00 -7.042601e-01 0.000000e+00 1.382500e+03 3.031088e+01 1.000000e+03 0 0 0
84 1 1 1.000000e+00 0.000000e+00 0.000000e+00 0.000000e+00 9.540943e-01 0.000000e+00 1.417500e+03 3.031088e+01 1.000000e+03 0 0 0
85 1 1 1.000000e+00 0.000000e+00 0.000000e+00 0.000000e+00 3.318134e-01 0.000000e+00 1.452500e+03 3.031088e+01 1.000000e+03 0 0 0
86 1 1 1.000000e+00 0.000000e+00 0.000000e+00 0.000000e+00 -1.151257e-01 0.000000e+00 1.487500e+03 3.031088e+01 1.000000e+03 0 0 0
87 1 1 1.000000e+00 0.000000e+00 0.000000e+00 0.000000e+00 -2.161123e-01 0.000000e+00 0.000000e+00 6.062175e+01 1.000000e+03 0 0 0
88 1 1 1.000000e+00 0.000000e+00 0.000000e+00 0.000000e+00 -2.161520e-01 0.000000e+00 3.500000e+01 6.062175e+01 1.000000e+03 0 0 0
89 1 1 1.000000e+00 0.000000e+00 0.000000e+00 0.000000e+00 -3.944960e-01 0.000000e+00 7.000000e+01 6.062175e+01 1.000000e+03 0 0 0
90 1 1 1.000000e+00 0.000000e+00 0.000000e+00 0.000000e+00 2.215345e-01 0.000000e+00 1.050000e+02 6.062175e+01 1.000000e+03 0 0 0
91 1 1 1.000000e+00 0.000000e+00 0.000000e+00 0.000000e+00 2.656005e-01 0.000000e+00 1.400000e+02 6.062175e+01 1.000000e+03 0 0 0
92 1 1 1.000000e+00 0.000000e+00 0.000000e+00 0.000000e+00 1.217040e-01 0.000000e+00 1.750000e+02 6.062175e+01 1.000000e+03 0 0 0
93 1 1 1.000000e+00 0.000000e+00 0.000000e+00 0.000000e+00 -4.652829e-04 0.000000e+00 2.100000e+02 6.062175e+01 1.000000e+03 0 0 0
94 1 1 1.000000e+00 0.000000e+00 0.000000e+00 0.000000e+00 9.784898e-02 0.000000e+00 2.450000e+02 6.062175e+01 1.000000e+03 0 0 0
95 1 1 1.000000e+00 0.000000e+00 0.000000e+00 0.000000e+00 7.952391e-01 0.000000e+00 2.800000e+02 6.062175e+01 1.000000e+03 0 0 0
96 1 1 1.000000e+00 0.000000e+00 0.000000e+00 0.000000e+00 -1.564981e-01 0.000000e+00 3.150000e+02 6.062175e+01 1.000000e+03 0 0 0
97 1 1 1.000000e+00 0.000000e+00 0.000000e+00 0.000000e+00 -9.356311e-01 0.000000e+00 3.500000e+02 6.062175e+01 1.000000e+03 0 0 0
98 1 1 1.000000e+00 0.000000e+00 0.000000e+00 0.000000e+00 -8.251620e-01 0.000000e+00 3.850000e+02 6.062175e+01 1.000000e+03 0 0 0
99 1 1 1.000000e+00 0.000000e+00 0.000000e+00 0.000000e+00 1.933073e-01 0.000000e+00 4.200000e+02 6.062175e+01 1.000000e+03 0 0 0
100 1 1 1.000000e+00 0.000000e+00 0.000000e+00 0.000000e+00 3.446958e-01 0.000000e+00 4.550000e+02 6.062175e+01 1.000000e+03 0 0 0
101 1 1 1.000000e+00 0.000000e+00 0.000000e+00 0.000000e+00 1.975236e-01 0.000000e+00 4.900000e+02 6.062175e+01 1.000000e+03 0 0 0
102 1 1 1.000000e+00 0.000000e+00 0.000000e+00 0.000000e+00 9.911593e-01 0.000000e+00 5.250000e+02 6.062175e+01 1.000000e+03 0 0 0
103 1 1 1.000000e+00 0.000000e+00 0.000000e+00 0.000000e+00 3.135273e-01 0.000000e+00 5.600000e+02 6.062175e+01 1.000000e+03 0 0 0
104 1 1 1.000000e+00 0.000000e+00 0.000000e+00 0.000000e+00 8.006876e-01 0.000000e+00 5.950000e+02 6.062175e+01 1.000000e+03 0 0 0
105 1 1 1.000000e+00 0.000000e+00 0.000000e+00 0.000000e+00 4.264635e-01 0.000000e+00 6.300000e+02 6.062175e+01 1.000000e+03 0 0 0
106 1 1 1.000000e+00 0.000000e+00 0.000000e+00 0.000000e+00 -5.129999e-01 0.000000e+00 6.650000e+02 6.062175e+01 1.000000e+03 0 0 0
107 1 1 1.000000e+00 0.000000e+00 0.000000e+00 0.000000e+00 1.876226e-01 0.000000e+00 7.000000e+02 6.062175e+01 1.000000e+03 0 0 0
108 1 1 1.000000e+00 0.000000e+00 0.000000e+00 0.000000e+00 -9.072332e-01 0.000000e+00 7.350000e+02 6.062175e+01 1.000000e+03 0 0 0
109 1 1 1.000000e+00 0.000000e+00 0.000000e+00 0.000000e+00 5.017357e-01 0.000000e+00 7.700000e+02 6.062175e+01 1.000000e+03 0 0 0
110 1 1 1.000000e+00 0.000000e+00 0.000000e+00 0.000000e+00 -6.957495e-01 0.000000e+00 8.050000e+02 6.062175e+01 1.000000e+03 0 0 0
111 1 1 1.000000e+00 0.000000e+00 0.000000e+00 0.000000e+00 -4.131302e-01 0.000000e+00 8.400000e+02 6.062175e+01 1.000000e+03 0 0 0
112 1 1 1.000000e+00 0.000000e+00 0.000000e+00 0.000000e+00 3.477027e-01 0.000000e+00 8.750000e+02 6.062175e+01 1.000000e+03 0 0 0
113 1 1 1.000000e+00 0.000000e+00 0.000000e+00 0.000000e+00 9.357005e-01 0.000000e+00 9.100000e+02 6.062175e+01 1.000000e+03 0 0 0
114 1 1 1.000000e+00 0.000000e+00 0.000000e+00 0.000000e+00 -6.887469e-03 0.000000e+00 9.450000e+02 6.062175e+01 1.000000e+03 0 0 0
115 1 1 1.000000e+00 0.000000e+00 0.000000e+00 0.000000e+00 -9.071661e-01 0.000000e+00 9.800000e+02 6.062175e+01 1.000000e+03 0 0 0
116 1 1 1.000000e+00 0.000000e+00 0.000000e+00 0.000000e+00 4.966761e-01 0.000000e+00 1.015000e+03 6.062175e+01 1.000000e+03 0 0 0
117 1 1 1.000000e+00 0.000000e+00 0.000000e+00 0.000000e+00 5.089365e-01 0.000000e+00 1.050000e+03 6.062175e+01 1.000000e+03 0 0 0
118 1 1 1.000000e+00 0.000000e+00 0.000000e+00 0.000000e+00 7.605105e-01 0.000000e+00 1.085000e+03 6.062175e+01 1.000000e+03 0 0 0
119 1 1 1.000000e+00 0.000000e+00 0.000000e+00 0.000000e+00 -5.751166e-01 0.000000e+00 1.120000e+03 6.062175e+01 1.000000e+03 0 0 0
120 1 1 1.000000e+00 0.000000e+00 0.000000e+00 0.000000e+00 -4.240366e-01 0.000000e+00 1.155000e+03 6.062175e+01 1.000000e+03 0 0 0
121 1 1 1.000000e+00 0.000000e+00 0.000000e+00 0.000000e+00 -9.169096e-01 0.000000e+00 1.190000e+03 6.062175e+01 1.000000e+03 0 0 0
122 1 1 1.000000e+00 0.000000e+00 0.000000e+00 0.000000e+00 -7.326207e-04 0.000000e+00 1.225000e+03 6.062175e+01 1.000000e+03 0 0 0
123 1 1 1.000000e+00 0.000000e+00 0.000000e+00 0.000000e+00 -4.297469e-01 0.000000e+00 1.260000e+03 6.062175e+01 1.000000e+03 0 0 0
124 1 1 1.000000e+00 0.000000e+00 0.000000e+00 0.000000e+00 -3.056694e-01 0.000000e+00 1.295000e+03 6.062175e+01 1.000000e+03 0 0 0
125 1 1 1.000000e+00 0.000000e+00 0.000000e+00 0.000000e+00 5.331280e-01 0.000000e+00 1.330000e+03 6.062175e+01 1.000000e+03 0 0 0
126 1 1 1.000000e+00 0.000000e+00 0.000000e+00 0.000000e+00 6.198758e-01 0.000000e+00 1.365000e+03 6.062175e+01 1.000000e+03 0 0 0
127 1 1 1.000000e+00 0.000000e+00 0.000000e+00 0.000000e+00 -3.467202e-02 0.000000e+00 1.400000e+03 6.062175e+01 1.000000e+03 0 0 0
128 1 1 1.000000e+00 0.000000e+00 0.000000e+00 0.000000e+00 -2.357000e-01 0.000000e+00 1.435000e+03 6.062175e+01 1.000000e+03 0 0 0
129 1 1 1.000000e+00 0.000000e+00 0.000000e+00 0.000000e+00 3.891478e-01 0.000000e+00 1.470000e+03 6.062175e+01 1.000000e+03 0 0 0
130 1 1 1.000000e+00 0.000000e+00 0.000000e+00 0.000000e+00 2.670967e-01 0.000000e+00 1.750000e+01 9.093263e+01 1.000000e+03 0 0 0
131 1 1 1.000000e+00 0.000000e+00 0.000000e+00 0.000000e+00 7.008159e-01 0.000000e+00 5.250000e+01 9.093263e+01 1.000000e+03 0 0 0
132 1 1 1.000000e+00 0.000000e+00 0.000000e+00 0.000000e+00 1.765541e-01 0.000000e+00 8.750000e+01 9.093263e+01 1.000000e+03 0 0 0
133 1 1 1.000000e+00 0.000000e+00 0.000000e+00 0.000000e+00 7.873298e-01 0.000000e+00 1.225000e+02 9.093263e+01 1.000000e+03 0 0 0
134 1 1 1.000000e+00 0.000000e+00 0.000000e+00 0.000000e+00 4.915548e-01 0.000000e+00 1.575000e+02 9.093263e+01 1.000000e+03 0 0 0
135 1 1 1.000000e+00 0.000000e+00 0.000000e+00 0.000000e+00 8.232498e-01 0.000000e+00 1.925000e+02 9.093263e+01 1.000000e+03 0 0 0
136 1 1 1.000000e+00 0.000000e+00 0.000000e+00 0.000000e+00 -3.754056e-01 0.000000e+00 2.275000e+02 9.093263e+01 1.000000e+03 0 0 0
137 1 1 1.000000e+00 0.000000e+00 0.000000e+00 0.000000e+00 -5.666748e-01 0.000000e+00 2.625000e+02 9.093263e+01 1.000000e+03 0 0 0
138 1 1 1.000000e+00 0.000000e+00 0.000000e+00 0.000000e+00 -5.409759e-01 0.000000e+00 2.975000e+02 9.093263e+01 1.000000e+03 0 0 0
139 1 1 1.000000e+00 0.000000e+00 0.000000e+00 0.000000e+00 5.728188e-01 0.000000e+00 3.325000e+02 9.093263e+01 1.000000e+03 0 0 0
140 1 1 1.000000e+00 0.000000e+00 0.000000e+00 0.000000e+00 -3.723600e-01 0.000000e+00 3.675000e+02 9.093263e+01 1.000000e+03 0 0 0
141 1 1 1.000000e+00 0.000000e+00 0.000000e+00 0.000000e+00 5.866489e-01 0.000000e+00 4.025000e+02 9.093263e+01 1.000000e+03 0 0 0
142 1 1 1.000000e+00 0.000000e+00 0.000000e+00 0.000000e+00 2.001960e-02 0.000000e+00 4.375000e+02 9.093263e+01 1.000000e+03 0 0 0
143 1 1 1.000000e+00 0.000000e+00 0.000000e+00 0.000000e+00 4.768671e-01 0.000000e+00 4.725000e+02 9.093263e+01 1.000000e+03 0 0 0
144 1 1 1.000000e+00 0.000000e+00 0.000000e+00 0.000000e+00 -7.767837e-01 0.000000e+00 5.075000e+02 9.093263e+01 1.000000e+03 0 0 0
145 1 1 1.000000e+00 0.000000e+00 0.000000e+00 0.000000e+00 3.417016e-01 0.000000e+00 5.425000e+02 9.093263e+01 1.000000e+03 0 0 0
146 1 1 1.000000e+00 0.000000e+00 0.000000e+00 0.000000e+00 -3.750878e-01 0.000000e+00 5.775000e+02 9.093263e+01 1.000000e+03 0 0 0
147 1 1 1.000000e+00 0.000000e+00 0.000000e+00 0.000000e+00 5.594975e-01 0.000000e+00 6.125000e+02 9.093263e+01 1.000000e+03 0 0 0
148 1 1 1.000000e+00 0.000000e+00 0.000000e+00 0.000000e+00 -1.066869e-01 0.000000e+00 6.475000e+02 9.093263e+01 1.000000e+03 0 0 0
149 1 1 1.000000e+00 0.000000e+00 0.000000e+00 0.000000e+00 6.885754e-01 0.000000e+00 6.825000e+02 9.093263e+01 1.000000e+03 0 0 0
150 1 1 1.000000e+00 0.000000e+00 0.000000e+00 0.000000e+00 -7.311680e-01 0.000000e+00 7.175000e+02 9.093263e+01 1.000000e+03 0 0 0
151 1 1 1.000000e+00 0.000000e+00 0.000000e+00 0.000000e+00 9.592872e-01 0.000000e+00 7.525000e+02 9.093263e+01 1.000000e+03 0 0 0
152 1 1 1.000000e+00 0.000000e+00 0.000000e+00 0.000000e+00 -9.780391e-01 0.000000e+00 7.875000e+02 9.093263e+01 1.000000e+03 0 0 0
153 1 1 1.000000e+00 0.000000e+00 0.000000e+00 0.000000e+00 7.412039e-01 0.000000e+00 8.225000e+02 9.093263e+01 1.000000e+03 0 0 0
154 1 1 1.000000e+00 0.000000e+00 0.000000e+00 0.000000e+00 6.504901e-01 0.000000e+00 8.575000e+02 9.093263e+01 1.000000e+03 0 0 0
155 1 1 1.000000e+00 0.000000e+00 0.000000e+00 0.000000e+00 9.618182e-01 0.000000e+00 8.925000e+02 9.093263e+01 1.000000e+03 0 0 0
156 1 1 1.000000e+00 0.000000e+00 0.000000e+00 0.000000e+00 1.489358e-02 0.000000e+00 9.275000e+02 9.093263e+01 1.000000e+03 0 0 0
157 1 1 1.000000e+00 0.000000e+00 0.000000e+00 0.000000e+00 -5.220128e-01 0.000000e+00 9.625000e+02 9.093263e+01 1.000000e+03 0 0 0
158 1 1 1.000000e+00 0.000000e+00 0.000000e+00 0.000000e+00 -1.766498e-01 0.000000e+00 9.975000e+02 9.093263e+01 1.000000e+03 0 0 0
159 1 1 1.000000e+00 0.000000e+00 0.000000e+00 0.000000e+00 -7.825954e-01 0.000000e+00 1.032500e+03 9.093263e+01 1.000000e+03 0 0 0
160 1 1 1.000000e+00 0.000000e+00 0.000000e+00 0.000000e+00 -5.726787e-01 0.000000e+00 1.067500e+03 9.093263e+01 1.000000e+03 0 0 0
161 1 1 1.000000e+00 0.000000e+00 0.000000e+00 0.000000e+00 -8.380896e-02 0.000000e+00 1.102500e+03 9.093263e+01 1.000000e+03 0 0 0
162 1 1 1.000000e+00 0.000000e+00 0.000000e+00 0.000000e+00 3.180069e-01 0.000000e+00 1.137500e+03 9.093263e+01 1.000000e+03 0 0 0
163 1 1 1.000000e+00 0.000000e+00 0.000000e+00 0.000000e+00 -4.999009e-01 0.000000e+00 1.172500e+03 9.093263e+01 1.000000e+03 0 0 0
164 1 1 1.000000e+00 0.000000e+00 0.000000e+00 0.000000e+00 -6.340519e-01 0.000000e+00 1.207500e+03 9.093263e+01 1.000000e+03 0 0 0
165 1 1 1.000000e+00 0.000000e+00 0.000000e+00 0.000000e+00 -3.635240e-01 0.000000e+00 1.242500e+03 9.093263e+01 1.000000e+03 0 0 0
166 1 1 1.000000e+00 0.000000e+00 0.000000e+00 0.000000e+00 1.903580e-01 0.000000e+00 1.277500e+03 9.093263e+01 1.000000e+03 0 0 0
167 1 1 1.000000e+00 0.000000e+00 0.000000e+00 0.000000e+00 1.602660e-01 0.000000e+00 1.312500e+03 9.093263e+01 1.000000e+03 0 0 0
168 1 1 1.000000e+00 0.000000e+00 0.000000e+00 0.000000e+00 -5.668424e-01 0.000000e+00 1.347500e+03 9.093263e+01 1.000000e+03 0 0 0
169 1 1 1.000000e+00 0.000000e+00 0.000000e+00 0.000000e+00 2.184362e-01 0.000000e+00 1.382500e+03 9.093263e+01 1.000000e+03 0 0 0
170 1 1 1.000000e+00 0.000000e+00 0.000000e+00 0.000000e+00 -1.385057e-01 0.000000e+00 1.417500e+03 9.093263e+01 1.000000e+03 0 0 0
171 1 1 1.000000e+00 0.000000e+00 0.000000e+00 0.000000e+00 -1.961814e-01 0.000000e+00 1.452500e+03 9.093263e+01 1.000000e+03 0 0 0
172 1 1 1.000000e+00 0.000000e+00 0.000000e+00 0.000000e+00 -5.927238e-01 0.000000e+00 1.487500e+03 9.093263e+01 1.000000e+03 0 0 0
173 1 1 1.000000e+00 0.000000e+00 0.000000e+00 0.000000e+00 2.712667e-01 0.000000e+00 0.000000e+00 1.212435e+02 1.000000e+03 0 0 0
174 1 1 1.000000e+00 0.000000e+00 0.000000e+00 0.000000e+00 -8.750093e-02 0.000000e+00 3.500000e+01 1.212435e+02 1.000000e+03 0 0 0
175 1 1 1.000000e+00 0.000000e+00 0.000000e+00 0.000000e+00 -8.511575e-01 0.000000e+00 7.000000e+01 1.212435e+02 1.000000e+03 0 0 0
176 1 1 1.000000e+00 0.000000e+00 0.000000e+00 0.000000e+00 4.651346e-01 0.000000e+00 1.050000e+02 1.212435e+02 1.000000e+03 0 0 0
177 1 1 1.000000e+00 0.000000e+00 0.000000e+00 0.000000e+00 8.105849e-01 0.000000e+00 1.400000e+02 1.212435e+02 1.000000e+03 0 0 0
178 1 1 1.000000e+00 0.000000e+00 0.000000e+00 0.000000e+00 -6.306926e-01 0.000000e+00 1.750000e+02 1.212435e+02 1.000000e+03 0 0 0
179 1 1 1.000000e+00 0.000000e+00 0.000000e+00 0.000000e+00 5.318284e-02 0.000000e+00 2.100000e+02 1.212435e+02 1.000000e+03 0 0 0
180 1 1 1.000000e+00 0.000000e+00 0.000000e+00 0.000000e+00 1.011643e+00 0.000000e+00 2.450000e+02 1.212435e+02 1.000000e+03 0 0 0
181 1 1 1.000000e+00 0.000000e+00 0.000000e+00 0.000000e+00 8.305244e-01 0.000000e+00 2.800000e+02 1.212435e+02 1.000000e+03 0 0 0
182 1 1 1.000000e+00 0.000000e+00 0.000000e+00 0.000000e+00 -1.983432e-01 0.000000e+00 3.150000e+02 1.212435e+02 1.000000e+03 0 0 0
183 1 1 1.000000e+00 0.000000e+00 0.000000e+00 0.000000e+00 8.334597e-02 0.000000e+00 3.500000e+02 1.212435e+02 1.000000e+03 0 0 0
184 1 1 1.000000e+00 0.000000e+00 0.000000e+00 0.000000e+00 7.567587e-01 0.000000e+00 3.850000e+02 1.212435e+02 1.000000e+03 0 0 0
185 1 1 1.000000e+00 0.000000e+00 0.000000e+00 0.000000e+00 9.699051e-01 0.000000e+00 4.200000e+02 1.212435e+02 1.000000e+03 0 0 0
186 1 1 1.000000e+00 0.000000e+00 0.000000e+00 0.000000e+00 -6.004386e-01 0.000000e+00 4.550000e+02 1.212435e+02 1.000000e+03 0 0 0
187 1 1 1.000000e+00 0.000000e+00 0.000000e+00 0.000000e+00 -5.751976e-01 0.000000e+00 4.900000e+02 1.212435e+02 1.000000e+03 0 0 0
188 1 1 1.000000e+00 0.000000e+00 0.000000e+00 0.000000e+00 3.398466e-01 0.000000e+00 5.250000e+02 1.212435e+02 1.000000e+03 0 0 0
189 1 1 1.000000e+00 0.000000e+00 0.000000e+00 0.000000e+00 9.833648e-01 0.000000e+00 5.600000e+02 1.212435e+02 1.000000e+03 0 0 0
190 1 1 1.000000e+00 0.000000e+00 0.000000e+00 0.000000e+00 9.977049e-01 0.000000e+00 5.950000e+02 1.212435e+02 1.000000e+03 0 0 0
191 1 1 1.000000e+00 0.000000e+00 0.000000e+00 0.000000e+00 -1.675582e-01 0.000000e+00 6.300000e+02 1.212435e+02 1.000000e+03 0 0 0
192 1 1 1.000000e+00 0.000000e+00 0.000000e+00 0.000000e+00 3.140525e-01 0.000000e+00 6.650000e+02 1.212435e+02 1.000000e+03 0 0 0
193 1 1 1.000000e+00 0.000000e+00 0.000000e+00 0.000000e+00 5.487153e-01 0.000000e+00 7.000000e+02 1.212435e+02 1.000000e+03 0 0 0
194 1 1 1.000000e+00 0.000000e+00 0.000000e+00 0.000000e+00 -6.632600e-01 0.000000e+00 7.350000e+02 1.212435e+02 1.000000e+03 0 0 0
195 1 1 1.000000e+00 0.000000e+00 0.000000e+00 0.000000e+00 1.056496e-01 0.000000e+00 7.700000e+02 1.212435e+02 1.000000e+03 0 0 0
196 1 1 1.000000e+00 0.000000e+00 0.000000e+00 0.000000e+00 -3.634566e-01 0.000000e+00 8.050000e+02 1.212435e+02 1.000000e+03 0 0 0
197 1 1 1.000000e+00 0.000000e+00 0.000000e+00 0.000000e+00 6.567390e-01 0.000000e+00 8.400000e+02 1.212435e+02 1.000000e+03 0 0 0
198 1 1 1.000000e+00 0.000000e+00 0.000000e+00 0.000000e+00 1.497298e-01 0.000000e+00 8.750000e+02 1.212435e+02 1.000000e+03 0 0 0
199 1 1 1.000000e+00 0.000000e+00 0.000000e+00 0.000000e+00 -8.439025e-01 0.000000e+00 9.100000e+02 1.212435e+02 1.000000e+03 0 0 0
200 1 1 1.000000e+00 0.000000e+00 0.000000e+00 0.000000e+00 -2.547826e-01 0.000000e+00 9.450000e+02 1.212435e+02 1.000000e+03 0 0 0
201 1 1 1.000000e+00 0.000000e+00 0.000000e+00 0.000000e+00 -4.815588e-01 0.000000e+00 9.800000e+02 1.212435e+02 1.000000e+03 0 0 0
202 1 1 1.000000e+00 0.000000e+00 0.000000e+00 0.000000e+00 2.109831e-01 0.000000e+00 1.015000e+03 1.212435e+02 1.000000e+03 0 0 0
203 1 1 1.000000e+00 0.000000e+00 0.000000e+00 0.000000e+00 -8.688353e-01 0.000000e+00 1.050000e+03 1.212435e+02 1.000000e+03 0 0 0
204 1 1 1.000000e+00 0.000000e+00 0.000000e+00 0.000000e+00 -7.868381e-01 0.000000e+00 1.085000e+03 1.212435e+02 1.000000e+03 0 0 0
205 1 1 1.000000e+00 0.000000e+00 0.000000e+00 0.000000e+00 -5.405950e-01 0.000000e+00 1.120000e+03 1.212435e+02 1.000000e+03 0 0 0
206 1 1 1.000000e+00 0.000000e+00 0.000000e+00 0.000000e+00 -4.069925e-01 0.000000e+00 1.155000e+03 1.212435e+02 1.000000e+03 0 0 0
207 1 1 1.000000e+00 0.000000e+00 0.000000e+00 0.000000e+00 -4.395110e-01 0.000000e+00 1.190000e+03 1.212435e+02 1.000000e+03 0 0 0
208 1 1 1.000000e+00 0.000000e+00 0.000000e+00 0.000000e+00 -2.934677e-01 0.000000e+00 1.225000e+03 1.212435e+02 1.000000e+03 0 0 0
209 1 1 1.000000e+00 0.000000e+00 0.000000e+00 0.000000e+00 -6.013278e-01 0.000000e+00 1.260000e+03 1.212435e+02 1.000000e+03 0 0 0
210 1 1 1.000000e+00 0.000000e+00 0.000000e+00 0.000000e+00 -1.082119e-01 0.000000e+00 1.295000e+03 1.212435e+02 1.000000e+03 0 0 0
211 1 1 1.000000e+00 0.000000e+00 0.000000e+00 0.000000e+00 -6.854714e-01 0.000000e+00 1.330000e+03 1.212435e+02 1.000000e+03 0 0 0
212 1 1 1.000000e+00 0.000000e+00 0.000000e+00 0.000000e+00 1.141149e-01 0.000000e+00 1.365000e+03 1.212435e+02 1.000000e+03 0 0 0
213 1 1 1.000000e+00 0.000000e+00 0.000000e+00 0.000000e+00 6.227089e-01 0.000000e+00 1.400000e+03 1.212435e+02 1.000000e+03 0 0 0
214 1 1 1.000000e+00 0.000000e+00 0.000000e+00 0.000000e+00 -8.418251e-01 0.000000e+00 1.435000e+03 1.212435e+02 1.000000e+03 0 0 0
215 1 1 1.000000e+00 0.000000e+00 0.000000e+00 0.000000e+00 4.650167e-01 0.000000e+00 1.470000e+03 1.212435e+02 1.000000e+03 0 0 0
216 1 1 1.000000e+00 0.000000e+00 0.000000e+00 0.000000e+00 7.029841e-01 0.000000e+00 1.750000e+01 1.515544e+02 1.000000e+03 0 0 0
217 1 1 1.000000e+00 0.000000e+00 0.000000e+00 0.000000e+00 -8.762501e-01 0.000000e+00 5.250000e+01 1.515544e+02 1.000000e+03 0 0 0
218 1 1 1.000000e+00 0.000000e+00 0.000000e+00 0.000000e+00 -1.342184e-01 0.000000e+00 8.750000e+01 1.515544e+02 1.000000e+03 0 0 0
219 1 1 1.000000e+00 0.000000e+00 0.000000e+00 0.000000e+00 2.298345e-01 0.000000e+00 1.225000e+02 1.515544e+02 1.000000e+03 0 0 0
220 1 1 1.000000e+00 0.000000e+00 0.000000e+00 0.000000e+00 7.469332e-01 0.000000e+00 1.575000e+02 1.515544e+02 1.000000e+03 0 0 0
221 1 1 1.000000e+00 0.000000e+00 0.000000e+00 0.000000e+00 8.859621e-01 0.000000e+00 1.925000e+02 1.515544e+02 1.000000e+03 0 0 0
222 1 1 1.000000e+00 0.000000e+00 0.000000e+00 0.000000e+00 8.294256e-01 0.000000e+00 2.275000e+02 1.515544e+02 1.000000e+03 0 0 0
223 1 1 1.000000e+00 0.000000e+00 0.000000e+00 0.000000e+00 -4.230911e-01 0.000000e+00 2.625000e+02 1.515544e+02 1.000000e+03 0 0 0
224 1 1 1.000000e+00 0.000000e+00 0.000000e+00 0.000000e+00 -9.626124e-01 0.000000e+00 2.975000e+02 1.515544e+02 1.000000e+03 0 0 0
225 1 1 1.000000e+00 0.000000e+00 0.000000e+00 0.000000e+00 4.518557e-01 0.000000e+00 3.325000e+02 1.515544e+02 1.000000e+03 0 0 0