BD data file

3282 atoms
428 bonds
321 angles
0 dihedrals
0 impropers

4 atom types
1 bond types
1 angle types
0 dihedral types
0 improper types

-1.000000e+03 2.000000e+03 xlo xhi
-1.000000e+03 2.000000e+03 ylo yhi
0.000000e+00 2.030000e+03 zlo zhi

Masses

1 1.000000e+00
2 1.000000e+00
3 1.000000e+00
4 1.000000e+00

Atoms

1 1 1 7.071068e-01 -0.000000e+00 7.071068e-01 0.000000e+00 7.823221e-01 0.000000e+00 5.800000e+02 3.500000e+02 0.000000e+00 0 0 0
2 1 1 7.050320e-01 -5.412850e-02 7.050320e-01 5.412850e-02 -6.776369e-01 0.000000e+00 5.773045e+02 3.851093e+02 0.000000e+00 0 0 0
3 1 1 6.988198e-01 -1.079393e-01 6.988198e-01 1.079393e-01 9.322790e-01 0.000000e+00 5.692812e+02 4.193957e+02 0.000000e+00 0 0 0
4 1 1 6.885066e-01 -1.611168e-01 6.885066e-01 1.611168e-01 7.657061e-01 0.000000e+00 5.561181e+02 4.520556e+02 0.000000e+00 0 0 0
5 1 1 6.741531e-01 -2.133487e-01 6.741531e-01 2.133487e-01 -4.064319e-01 0.000000e+00 5.381238e+02 4.823233e+02 0.000000e+00 0 0 0
6 1 1 6.558433e-01 -2.643286e-01 6.558433e-01 2.643286e-01 -9.528227e-01 0.000000e+00 5.157200e+02 5.094895e+02 0.000000e+00 0 0 0
7 1 1 6.336847e-01 -3.137573e-01 6.336847e-01 3.137573e-01 6.366411e-01 0.000000e+00 4.894318e+02 5.329174e+02 0.000000e+00 0 0 0
8 1 1 6.078075e-01 -3.613448e-01 6.078075e-01 3.613448e-01 -5.469969e-01 0.000000e+00 4.598756e+02 5.520578e+02 0.000000e+00 0 0 0
9 1 1 5.783634e-01 -4.068117e-01 5.783634e-01 4.068117e-01 -8.903873e-01 0.000000e+00 4.277439e+02 5.664622e+02 0.000000e+00 0 0 0
10 1 1 5.455252e-01 -4.498913e-01 5.455252e-01 4.498913e-01 -3.683248e-01 0.000000e+00 3.937900e+02 5.757929e+02 0.000000e+00 0 0 0
11 1 1 5.094857e-01 -4.903308e-01 5.094857e-01 4.903308e-01 8.579475e-01 0.000000e+00 3.588096e+02 5.798312e+02 0.000000e+00 0 0 0
12 1 1 4.704563e-01 -5.278928e-01 4.704563e-01 5.278928e-01 8.741832e-02 0.000000e+00 3.236228e+02 5.784825e+02 0.000000e+00 0 0 0
13 1 1 4.286661e-01 -5.623570e-01 4.286661e-01 5.623570e-01 -8.675252e-01 0.000000e+00 2.890543e+02 5.717783e+02 0.000000e+00 0 0 0
14 1 1 3.843603e-01 -5.935210e-01 3.843603e-01 5.935210e-01 -4.308744e-01 0.000000e+00 2.559142e+02 5.598758e+02 0.000000e+00 0 0 0
15 1 1 3.377989e-01 -6.212020e-01 3.377989e-01 6.212020e-01 1.324549e-01 0.000000e+00 2.249795e+02 5.430540e+02 0.000000e+00 0 0 0
16 1 1 2.892552e-01 -6.452375e-01 2.892552e-01 6.452375e-01 -8.103386e-01 0.000000e+00 1.969751e+02 5.217072e+02 0.000000e+00 0 0 0
17 1 1 2.390140e-01 -6.654865e-01 2.390140e-01 6.654865e-01 2.693023e-01 0.000000e+00 1.725575e+02 4.963358e+02 0.000000e+00 0 0 0
18 1 1 1.873702e-01 -6.818302e-01 1.873702e-01 6.818302e-01 5.247188e-01 0.000000e+00 1.522990e+02 4.675343e+02 0.000000e+00 0 0 0
19 1 1 1.346268e-01 -6.941726e-01 1.346268e-01 6.941726e-01 5.734383e-01 0.000000e+00 1.366744e+02 4.359779e+02 0.000000e+00 0 0 0
20 1 1 8.109343e-02 -7.024414e-01 8.109343e-02 7.024414e-01 4.642842e-01 0.000000e+00 1.260501e+02 4.024063e+02 0.000000e+00 0 0 0
21 1 1 2.708412e-02 -7.065879e-01 2.708412e-02 7.065879e-01 6.591730e-01 0.000000e+00 1.206749e+02 3.676063e+02 0.000000e+00 0 0 0
22 1 1 2.708412e-02 7.065879e-01 2.708412e-02 -7.065879e-01 -5.926608e-01 0.000000e+00 1.206749e+02 3.323937e+02 0.000000e+00 0 0 0
23 1 1 8.109343e-02 7.024414e-01 8.109343e-02 -7.024414e-01 9.202686e-01 0.000000e+00 1.260501e+02 2.975937e+02 0.000000e+00 0 0 0
24 1 1 1.346268e-01 6.941726e-01 1.346268e-01 -6.941726e-01 -8.594324e-01 0.000000e+00 1.366744e+02 2.640221e+02 0.000000e+00 0 0 0
25 1 1 1.873702e-01 6.818302e-01 1.873702e-01 -6.818302e-01 -7.140499e-01 0.000000e+00 1.522990e+02 2.324657e+02 0.000000e+00 0 0 0
26 1 1 2.390140e-01 6.654865e-01 2.390140e-01 -6.654865e-01 -8.071985e-01 0.000000e+00 1.725575e+02 2.036642e+02 0.000000e+00 0 0 0
27 1 1 2.892552e-01 6.452375e-01 2.892552e-01 -6.452375e-01 -9.278942e-01 0.000000e+00 1.969751e+02 1.782928e+02 0.000000e+00 0 0 0
28 1 1 3.377989e-01 6.212020e-01 3.377989e-01 -6.212020e-01 4.254850e-01 0.000000e+00 2.249795e+02 1.569460e+02 0.000000e+00 0 0 0
29 1 1 3.843603e-01 5.935210e-01 3.843603e-01 -5.935210e-01 9.350673e-01 0.000000e+00 2.559142e+02 1.401242e+02 0.000000e+00 0 0 0
30 1 1 4.286661e-01 5.623570e-01 4.286661e-01 -5.623570e-01 3.415387e-01 0.000000e+00 2.890543e+02 1.282217e+02 0.000000e+00 0 0 0
31 1 1 4.704563e-01 5.278928e-01 4.704563e-01 -5.278928e-01 5.819319e-01 0.000000e+00 3.236228e+02 1.215175e+02 0.000000e+00 0 0 0
32 1 1 5.094857e-01 4.903308e-01 5.094857e-01 -4.903308e-01 3.955808e-01 0.000000e+00 3.588096e+02 1.201688e+02 0.000000e+00 0 0 0
33 1 1 5.455252e-01 4.498913e-01 5.455252e-01 -4.498913e-01 -3.202691e-02 0.000000e+00 3.937900e+02 1.242071e+02 0.000000e+00 0 0 0
34 1 1 5.783634e-01 4.068117e-01 5.783634e-01 -4.068117e-01 3.839736e-01 0.000000e+00 4.277439e+02 1.335378e+02 0.000000e+00 0 0 0
35 1 1 6.078075e-01 3.613448e-01 6.078075e-01 -3.613448e-01 -1.366926e-01 0.000000e+00 4.598756e+02 1.479422e+02 0.000000e+00 0 0 0
36 1 1 6.336847e-01 3.137573e-01 6.336847e-01 -3.137573e-01 -2.506785e-01 0.000000e+00 4.894318e+02 1.670826e+02 0.000000e+00 0 0 0
37 1 1 6.558433e-01 2.643286e-01 6.558433e-01 -2.643286e-01 -7.297568e-01 0.000000e+00 5.157200e+02 1.905105e+02 0.000000e+00 0 0 0
38 1 1 6.741531e-01 2.133487e-01 6.741531e-01 -2.133487e-01 -8.272733e-01 0.000000e+00 5.381238e+02 2.176767e+02 0.000000e+00 0 0 0
39 1 1 6.885066e-01 1.611168e-01 6.885066e-01 -1.611168e-01 4.298513e-01 0.000000e+00 5.561181e+02 2.479444e+02 0.000000e+00 0 0 0
40 1 1 6.988198e-01 1.079393e-01 6.988198e-01 -1.079393e-01 -6.824722e-01 0.000000e+00 5.692812e+02 2.806043e+02 0.000000e+00 0 0 0
41 1 1 7.050320e-01 5.412850e-02 7.050320e-01 -5.412850e-02 7.729305e-02 0.000000e+00 5.773045e+02 3.148907e+02 0.000000e+00 0 0 0
42 1 1 7.065879e-01 -2.708412e-02 7.065879e-01 2.708412e-02 -9.770276e-01 0.000000e+00 5.793251e+02 3.676063e+02 3.031088e+01 0 0 0
43 1 1 7.024414e-01 -8.109343e-02 7.024414e-01 8.109343e-02 6.457119e-01 0.000000e+00 5.739499e+02 4.024063e+02 3.031088e+01 0 0 0
44 1 1 6.941726e-01 -1.346268e-01 6.941726e-01 1.346268e-01 2.475777e-01 0.000000e+00 5.633256e+02 4.359779e+02 3.031088e+01 0 0 0
45 1 1 6.818302e-01 -1.873702e-01 6.818302e-01 1.873702e-01 8.584158e-01 0.000000e+00 5.477010e+02 4.675343e+02 3.031088e+01 0 0 0
46 1 1 6.654865e-01 -2.390140e-01 6.654865e-01 2.390140e-01 -2.783070e-01 0.000000e+00 5.274425e+02 4.963358e+02 3.031088e+01 0 0 0
47 1 1 6.452375e-01 -2.892552e-01 6.452375e-01 2.892552e-01 -6.210821e-01 0.000000e+00 5.030249e+02 5.217072e+02 3.031088e+01 0 0 0
48 1 1 6.212020e-01 -3.377989e-01 6.212020e-01 3.377989e-01 -3.624484e-01 0.000000e+00 4.750205e+02 5.430540e+02 3.031088e+01 0 0 0
49 1 1 5.935210e-01 -3.843603e-01 5.935210e-01 3.843603e-01 2.868339e-03 0.000000e+00 4.440858e+02 5.598758e+02 3.031088e+01 0 0 0
50 1 1 5.623570e-01 -4.286661e-01 5.623570e-01 4.286661e-01 9.520048e-02 0.000000e+00 4.109457e+02 5.717783e+02 3.031088e+01 0 0 0
51 1 1 5.278928e-01 -4.704563e-01 5.278928e-01 4.704563e-01 4.692513e-01 0.000000e+00 3.763772e+02 5.784825e+02 3.031088e+01 0 0 0
52 1 1 4.903308e-01 -5.094857e-01 4.903308e-01 5.094857e-01 -1.957505e-02 0.000000e+00 3.411904e+02 5.798312e+02 3.031088e+01 0 0 0
53 1 1 4.498913e-01 -5.455252e-01 4.498913e-01 5.455252e-01 8.445092e-01 0.000000e+00 3.062100e+02 5.757929e+02 3.031088e+01 0 0 0
54 1 1 4.068117e-01 -5.783634e-01 4.068117e-01 5.783634e-01 -4.316713e-01 0.000000e+00 2.722561e+02 5.664622e+02 3.031088e+01 0 0 0
55 1 1 3.613448e-01 -6.078075e-01 3.613448e-01 6.078075e-01 -3.688307e-01 0.000000e+00 2.401244e+02 5.520578e+02 3.031088e+01 0 0 0
56 1 1 3.137573e-01 -6.336847e-01 3.137573e-01 6.336847e-01 8.757310e-01 0.000000e+00 2.105682e+02 5.329174e+02 3.031088e+01 0 0 0
57 1 1 2.643286e-01 -6.558433e-01 2.643286e-01 6.558433e-01 -7.217361e-01 0.000000e+00 1.842800e+02 5.094895e+02 3.031088e+01 0 0 0
58 1 1 2.133487e-01 -6.741531e-01 2.133487e-01 6.741531e-01 -9.235518e-01 0.000000e+00 1.618762e+02 4.823233e+02 3.031088e+01 0 0 0
59 1 1 1.611168e-01 -6.885066e-01 1.611168e-01 6.885066e-01 2.350246e-01 0.000000e+00 1.438819e+02 4.520556e+02 3.031088e+01 0 0 0
60 1 1 1.079393e-01 -6.988198e-01 1.079393e-01 6.988198e-01 -7.716284e-01 0.000000e+00 1.307188e+02 4.193957e+02 3.031088e+01 0 0 0
61 1 1 5.412850e-02 -7.050320e-01 5.412850e-02 7.050320e-01 -4.343016e-01 0.000000e+00 1.226955e+02 3.851093e+02 3.031088e+01 0 0 0
62 1 1 0.000000e+00 7.071068e-01 0.000000e+00 -7.071068e-01 7.311311e-02 0.000000e+00 1.200000e+02 3.500000e+02 3.031088e+01 0 0 0
63 1 1 5.412850e-02 7.050320e-01 5.412850e-02 -7.050320e-01 4.899393e-01 0.000000e+00 1.226955e+02 3.148907e+02 3.031088e+01 0 0 0
64 1 1 1.079393e-01 6.988198e-01 1.079393e-01 -6.988198e-01 -3.384140e-01 0.000000e+00 1.307188e+02 2.806043e+02 3.031088e+01 0 0 0
65 1 1 1.611168e-01 6.885066e-01 1.611168e-01 -6.885066e-01 1.511669e-01 0.000000e+00 1.438819e+02 2.479444e+02 3.031088e+01 0 0 0
66 1 1 2.133487e-01 6.741531e-01 2.133487e-01 -6.741531e-01 -1.004332e-01 0.000000e+00 1.618762e+02 2.176767e+02 3.031088e+01 0 0 0
67 1 1 2.643286e-01 6.558433e-01 2.643286e-01 -6.558433e-01 7.210852e-01 0.000000e+00 1.842800e+02 1.905105e+02 3.031088e+01 0 0 0
68 1 1 3.137573e-01 6.336847e-01 3.137573e-01 -6.336847e-01 4.812693e-01 0.000000e+00 2.105682e+02 1.670826e+02 3.031088e+01 0 0 0
69 1 1 3.613448e-01 6.078075e-01 3.613448e-01 -6.078075e-01 -5.416376e-01 0.000000e+00 2.401244e+02 1.479422e+02 3.031088e+01 0 0 0
70 1 1 4.068117e-01 5.783634e-01 4.068117e-01 -5.783634e-01 4.065277e-01 0.000000e+00 2.722561e+02 1.335378e+02 3.031088e+01 0 0 0
71 1 1 4.498913e-01 5.455252e-01 4.498913e-01 -5.455252e-01 2.901139e-01 0.000000e+00 3.062100e+02 1.242071e+02 3.031088e+01 0 0 0
72 1 1 4.903308e-01 5.094857e-01 4.903308e-01 -5.094857e-01 8.284409e-01 0.000000e+00 3.411904e+02 1.201688e+02 3.031088e+01 0 0 0
73 1 1 5.278928e-01 4.704563e-01 5.278928e-01 -4.704563e-01 6.358090e-01 0.000000e+00 3.763772e+02 1.215175e+02 3.031088e+01 0 0 0
74 1 1 5.623570e-01 4.286661e-01 5.623570e-01 -4.286661e-01 8.824890e-01 0.000000e+00 4.109457e+02 1.282217e+02 3.031088e+01 0 0 0
75 1 1 5.935210e-01 3.843603e-01 5.935210e-01 -3.843603e-01 6.145212e-01 0.000000e+00 4.440858e+02 1.401242e+02 3.031088e+01 0 0 0
76 1 1 6.212020e-01 3.377989e-01 6.212020e-01 -3.377989e-01 4.465326e-01 0.000000e+00 4.750205e+02 1.569460e+02 3.031088e+01 0 0 0
77 1 1 6.452375e-01 2.892552e-01 6.452375e-01 -2.892552e-01 -1.035230e-01 0.000000e+00 5.030249e+02 1.782928e+02 3.031088e+01 0 0 0
78 1 1 6.654865e-01 2.390140e-01 6.654865e-01 -2.390140e-01 5.080853e-01 0.000000e+00 5.274425e+02 2.036642e+02 3.031088e+01 0 0 0
79 1 1 6.818302e-01 1.873702e-01 6.818302e-01 -1.873702e-01 -8.994116e-01 0.000000e+00 5.477010e+02 2.324657e+02 3.031088e+01 0 0 0
80 1 1 6.941726e-01 1.346268e-01 6.941726e-01 -1.346268e-01 -5.694296e-01 0.000000e+00 5.633256e+02 2.640221e+02 3.031088e+01 0 0 0
81 1 1 7.024414e-01 8.109343e-02 7.024414e-01 -8.109343e-02 -1.115007e-01 0.000000e+00 5.739499e+02 2.975937e+02 3.031088e+01 0 0 0
82 1 1 7.065879e-01 2.708412e-02 7.065879e-01 -2.708412e-02 3.106299e-01 0.000000e+00 5.793251e+02 3.323937e+02 3.031088e+01 0 0 0
83 1 1 7.071068e-01 -0.000000e+00 7.071068e-01 0.000000e+00 5.017283e-01 0.000000e+00 5.800000e+02 3.500000e+02 6.062175e+01 0 0 0
84 1 1 7.050320e-01 -5.412850e-02 7.050320e-01 5.412850e-02 2.149270e-01 0.000000e+00 5.773045e+02 3.851093e+02 6.062175e+01 0 0 0
85 1 1 6.988198e-01 -1.079393e-01 6.988198e-01 1.079393e-01 -1.361821e-01 0.000000e+00 5.692812e+02 4.193957e+02 6.062175e+01 0 0 0
86 1 1 6.885066e-01 -1.611168e-01 6.885066e-01 1.611168e-01 3.405069e-01 0.000000e+00 5.561181e+02 4.520556e+02 6.062175e+01 0 0 0
87 1 1 6.741531e-01 -2.133487e-01 6.741531e-01 2.133487e-01 5.611854e-01 0.000000e+00 5.381238e+02 4.823233e+02 6.062175e+01 0 0 0
88 1 1 6.558433e-01 -2.643286e-01 6.558433e-01 2.643286e-01 -1.150696e-01 0.000000e+00 5.157200e+02 5.094895e+02 6.062175e+01 0 0 0
89 1 1 6.336847e-01 -3.137573e-01 6.336847e-01 3.137573e-01 7.596581e-01 0.000000e+00 4.894318e+02 5.329174e+02 6.062175e+01 0 0 0
90 1 1 6.078075e-01 -3.613448e-01 6.078075e-01 3.613448e-01 -7.710154e-01 0.000000e+00 4.598756e+02 5.520578e+02 6.062175e+01 0 0 0
91 1 1 5.783634e-01 -4.068117e-01 5.783634e-01 4.068117e-01 1.624763e-01 0.000000e+00 4.277439e+02 5.664622e+02 6.062175e+01 0 0 0
92 1 1 5.455252e-01 -4.498913e-01 5.455252e-01 4.498913e-01 3.970910e-01 0.000000e+00 3.937900e+02 5.757929e+02 6.062175e+01 0 0 0
93 1 1 5.094857e-01 -4.903308e-01 5.094857e-01 4.903308e-01 8.783638e-01 0.000000e+00 3.588096e+02 5.798312e+02 6.062175e+01 0 0 0
94 1 1 4.704563e-01 -5.278928e-01 4.704563e-01 5.278928e-01 1.718191e-01 0.000000e+00 3.236228e+02 5.784825e+02 6.062175e+01 0 0 0
95 1 1 4.286661e-01 -5.623570e-01 4.286661e-01 5.623570e-01 -5.730581e-01 0.000000e+00 2.890543e+02 5.717783e+02 6.062175e+01 0 0 0
96 1 1 3.843603e-01 -5.935210e-01 3.843603e-01 5.935210e-01 2.139259e-01 0.000000e+00 2.559142e+02 5.598758e+02 6.062175e+01 0 0 0
97 1 1 3.377989e-01 -6.212020e-01 3.377989e-01 6.212020e-01 -3.387395e-01 0.000000e+00 2.249795e+02 5.430540e+02 6.062175e+01 0 0 0
98 1 1 2.892552e-01 -6.452375e-01 2.892552e-01 6.452375e-01 4.660503e-01 0.000000e+00 1.969751e+02 5.217072e+02 6.062175e+01 0 0 0
99 1 1 2.390140e-01 -6.654865e-01 2.390140e-01 6.654865e-01 3.663548e-01 0.000000e+00 1.725575e+02 4.963358e+02 6.062175e+01 0 0 0
100 1 1 1.873702e-01 -6.818302e-01 1.873702e-01 6.818302e-01 -2.944768e-01 0.000000e+00 1.522990e+02 4.675343e+02 6.062175e+01 0 0 0
101 1 1 1.346268e-01 -6.941726e-01 1.346268e-01 6.941726e-01 2.298132e-01 0.000000e+00 1.366744e+02 4.359779e+02 6.062175e+01 0 0 0
102 1 1 8.109343e-02 -7.024414e-01 8.109343e-02 7.024414e-01 -2.732674e-01 0.000000e+00 1.260501e+02 4.024063e+02 6.062175e+01 0 0 0
103 1 1 2.708412e-02 -7.065879e-01 2.708412e-02 7.065879e-01 7.071864e-02 0.000000e+00 1.206749e+02 3.676063e+02 6.062175e+01 0 0 0
104 1 1 2.708412e-02 7.065879e-01 2.708412e-02 -7.065879e-01 3.758156e-01 0.000000e+00 1.206749e+02 3.323937e+02 6.062175e+01 0 0 0
105 1 1 8.109343e-02 7.024414e-01 8.109343e-02 -7.024414e-01 -6.913331e-02 0.000000e+00 1.260501e+02 2.975937e+02 6.062175e+01 0 0 0
106 1 1 1.346268e-01 6.941726e-01 1.346268e-01 -6.941726e-01 5.836562e-01 0.000000e+00 1.366744e+02 2.640221e+02 6.062175e+01 0 0 0
107 1 1 1.873702e-01 6.818302e-01 1.873702e-01 -6.818302e-01 -3.963692e-01 0.000000e+00 1.522990e+02 2.324657e+02 6.062175e+01 0 0 0
108 1 1 2.390140e-01 6.654865e-01 2.390140e-01 -6.654865e-01 6.624638e-01 0.000000e+00 1.725575e+02 2.036642e+02 6.062175e+01 0 0 0
109 1 1 2.892552e-01 6.452375e-01 2.892552e-01 -6.452375e-01 -1.934192e-01 0.000000e+00 1.969751e+02 1.782928e+02 6.062175e+01 0 0 0
110 1 1 3.377989e-01 6.212020e-01 3.377989e-01 -6.212020e-01 6.977823e-01 0.000000e+00 2.249795e+02 1.569460e+02 6.062175e+01 0 0 0
111 1 1 3.843603e-01 5.935210e-01 3.843603e-01 -5.935210e-01 -6.261080e-01 0.000000e+00 2.559142e+02 1.401242e+02 6.062175e+01 0 0 0
112 1 1 4.286661e-01 5.623570e-01 4.286661e-01 -5.623570e-01 7.257571e-01 0.000000e+00 2.890543e+02 1.282217e+02 6.062175e+01 0 0 0
113 1 1 4.704563e-01 5.278928e-01 4.704563e-01 -5.278928e-01 -1.426777e-02 0.000000e+00 3.236228e+02 1.215175e+02 6.062175e+01 0 0 0
114 1 1 5.094857e-01 4.903308e-01 5.094857e-01 -4.903308e-01 1.290234e-01 0.000000e+00 3.588096e+02 1.201688e+02 6.062175e+01 0 0 0
115 1 1 5.455252e-01 4.498913e-01 5.455252e-01 -4.498913e-01 8.697282e-01 0.000000e+00 3.937900e+02 1.242071e+02 6.062175e+01 0 0 0
116 1 1 5.783634e-01 4.068117e-01 5.783634e-01 -4.068117e-01 -6.655848e-01 0.000000e+00 4.277439e+02 1.335378e+02 6.062175e+01 0 0 0
117 1 1 6.078075e-01 3.613448e-01 6.078075e-01 -3.613448e-01 -7.704792e-01 0.000000e+00 4.598756e+02 1.479422e+02 6.062175e+01 0 0 0
118 1 1 6.336847e-01 3.137573e-01 6.336847e-01 -3.137573e-01 2.799757e-01 0.000000e+00 4.894318e+02 1.670826e+02 6.062175e+01 0 0 0
119 1 1 6.558433e-01 2.643286e-01 6.558433e-01 -2.643286e-01 -5.696957e-01 0.000000e+00 5.157200e+02 1.905105e+02 6.062175e+01 0 0 0
120 1 1 6.741531e-01 2.133487e-01 6.741531e-01 -2.133487e-01 -5.921369e-02 0.000000e+00 5.381238e+02 2.176767e+02 6.062175e+01 0 0 0
121 1 1 6.885066e-01 1.611168e-01 6.885066e-01 -1.611168e-01 -2.965147e-01 0.000000e+00 5.561181e+02 2.479444e+02 6.062175e+01 0 0 0
122 1 1 6.988198e-01 1.079393e-01 6.988198e-01 -1.079393e-01 3.137643e-01 0.000000e+00 5.692812e+02 2.806043e+02 6.062175e+01 0 0 0
123 1 1 7.050320e-01 5.412850e-02 7.050320e-01 -5.412850e-02 6.118988e-01 0.000000e+00 5.773045e+02 3.148907e+02 6.062175e+01 0 0 0
124 1 1 7.065879e-01 -2.708412e-02 7.065879e-01 2.708412e-02 6.729068e-02 0.000000e+00 5.793251e+02 3.676063e+02 9.093263e+01 0 0 0
125 1 1 7.024414e-01 -8.109343e-02 7.024414e-01 8.109343e-02 4.205571e-01 0.000000e+00 5.739499e+02 4.024063e+02 9.093263e+01 0 0 0
126 1 1 6.941726e-01 -1.346268e-01 6.941726e-01 1.346268e-01 -8.405003e-01 0.000000e+00 5.633256e+02 4.359779e+02 9.093263e+01 0 0 0
127 1 1 6.818302e-01 -1.873702e-01 6.818302e-01 1.873702e-01 4.084752e-01 0.000000e+00 5.477010e+02 4.675343e+02 9.093263e+01 0 0 0
128 1 1 6.654865e-01 -2.390140e-01 6.654865e-01 2.390140e-01 -1.743632e-01 0.000000e+00 5.274425e+02 4.963358e+02 9.093263e+01 0 0 0
129 1 1 6.452375e-01 -2.892552e-01 6.452375e-01 2.892552e-01 -6.398008e-01 0.000000e+00 5.030249e+02 5.217072e+02 9.093263e+01 0 0 0
130 1 1 6.212020e-01 -3.377989e-01 6.212020e-01 3.377989e-01 -8.564628e-01 0.000000e+00 4.750205e+02 5.430540e+02 9.093263e+01 0 0 0
131 1 1 5.935210e-01 -3.843603e-01 5.935210e-01 3.843603e-01 8.532590e-01 0.000000e+00 4.440858e+02 5.598758e+02 9.093263e+01 0 0 0
132 1 1 5.623570e-01 -4.286661e-01 5.623570e-01 4.286661e-01 5.984528e-02 0.000000e+00 4.109457e+02 5.717783e+02 9.093263e+01 0 0 0
133 1 1 5.278928e-01 -4.704563e-01 5.278928e-01 4.704563e-01 6.600004e-01 0.000000e+00 3.763772e+02 5.784825e+02 9.093263e+01 0 0 0
134 1 1 4.903308e-01 -5.094857e-01 4.903308e-01 5.094857e-01 -8.006040e-01 0.000000e+00 3.411904e+02 5.798312e+02 9.093263e+01 0 0 0
135 1 1 4.498913e-01 -5.455252e-01 4.498913e-01 5.455252e-01 8.413467e-01 0.000000e+00 3.062100e+02 5.757929e+02 9.093263e+01 0 0 0
136 1 1 4.068117e-01 -5.783634e-01 4.068117e-01 5.783634e-01 5.443533e-01 0.000000e+00 2.722561e+02 5.664622e+02 9.093263e+01 0 0 0
137 1 1 3.613448e-01 -6.078075e-01 3.613448e-01 6.078075e-01 -4.738405e-01 0.000000e+00 2.401244e+02 5.520578e+02 9.093263e+01 0 0 0
138 1 1 3.137573e-01 -6.336847e-01 3.137573e-01 6.336847e-01 -8.350195e-01 0.000000e+00 2.105682e+02 5.329174e+02 9.093263e+01 0 0 0
139 1 1 2.643286e-01 -6.558433e-01 2.643286e-01 6.558433e-01 9.650770e-01 0.000000e+00 1.842800e+02 5.094895e+02 9.093263e+01 0 0 0
140 1 1 2.133487e-01 -6.741531e-01 2.133487e-01 6.741531e-01 -9.231325e-01 0.000000e+00 1.618762e+02 4.823233e+02 9.093263e+01 0 0 0
141 1 1 1.611168e-01 -6.885066e-01 1.611168e-01 6.885066e-01 6.004309e-01 0.000000e+00 1.438819e+02 4.520556e+02 9.093263e+01 0 0 0
142 1 1 1.079393e-01 -6.988198e-01 1.079393e-01 6.988198e-01 6.733403e-01 0.000000e+00 1.307188e+02 4.193957e+02 9.093263e+01 0 0 0
143 1 1 5.412850e-02 -7.050320e-01 5.412850e-02 7.050320e-01 -2.608551e-01 0.000000e+00 1.226955e+02 3.851093e+02 9.093263e+01 0 0 0
144 1 1 0.000000e+00 7.071068e-01 0.000000e+00 -7.071068e-01 2.974560e-01 0.000000e+00 1.200000e+02 3.500000e+02 9.093263e+01 0 0 0
145 1 1 5.412850e-02 7.050320e-01 5.412850e-02 -7.050320e-01 -3.233872e-02 0.000000e+00 1.226955e+02 3.148907e+02 9.093263e+01 0 0 0
146 1 1 1.079393e-01 6.988198e-01 1.079393e-01 -6.988198e-01 3.605813e-01 0.000000e+00 1.307188e+02 2.806043e+02 9.093263e+01 0 0 0
147 1 1 1.611168e-01 6.885066e-01 1.611168e-01 -6.885066e-01 -6.284486e-01 0.000000e+00 1.438819e+02 2.479444e+02 9.093263e+01 0 0 0
148 1 1 2.133487e-01 6.741531e-01 2.133487e-01 -6.741531e-01 3.721643e-01 0.000000e+00 1.618762e+02 2.176767e+02 9.093263e+01 0 0 0
149 1 1 2.643286e-01 6.558433e-01 2.643286e-01 -6.558433e-01 8.227323e-01 0.000000e+00 1.842800e+02 1.905105e+02 9.093263e+01 0 0 0
150 1 1 3.137573e-01 6.336847e-01 3.137573e-01 -6.336847e-01 -3.792369e-01 0.000000e+00 2.105682e+02 1.670826e+02 9.093263e+01 0 0 0
151 1 1 3.613448e-01 6.078075e-01 3.613448e-01 -6.078075e-01 7.694408e-01 0.000000e+00 2.401244e+02 1.479422e+02 9.093263e+01 0 0 0
152 1 1 4.068117e-01 5.783634e-01 4.068117e-01 -5.783634e-01 7.298384e-02 0.000000e+00 2.722561e+02 1.335378e+02 9.093263e+01 0 0 0
153 1 1 4.498913e-01 5.455252e-01 4.498913e-01 -5.455252e-01 1.236235e-01 0.000000e+00 3.062100e+02 1.242071e+02 9.093263e+01 0 0 0
154 1 1 4.903308e-01 5.094857e-01 4.903308e-01 -5.094857e-01 -5.722434e-01 0.000000e+00 3.411904e+02 1.201688e+02 9.093263e+01 0 0 0
155 1 1 5.278928e-01 4.704563e-01 5.278928e-01 -4.704563e-01 -9.319525e-01 0.000000e+00 3.763772e+02 1.215175e+02 9.093263e+01 0 0 0
156 1 1 5.623570e-01 4.286661e-01 5.623570e-01 -4.286661e-01 3.646652e-01 0.000000e+00 4.109457e+02 1.282217e+02 9.093263e+01 0 0 0
157 1 1 5.935210e-01 3.843603e-01 5.935210e-01 -3.843603e-01 -8.748172e-01 0.000000e+00 4.440858e+02 1.401242e+02 9.093263e+01 0 0 0
158 1 1 6.212020e-01 3.377989e-01 6.212020e-01 -3.377989e-01 1.958715e-03 0.000000e+00 4.750205e+02 1.569460e+02 9.093263e+01 0 0 0
159 1 1 6.452375e-01 2.892552e-01 6.452375e-01 -2.892552e-01 2.581639e-01 0.000000e+00 5.030249e+02 1.782928e+02 9.093263e+01 0 0 0
160 1 1 6.654865e-01 2.390140e-01 6.654865e-01 -2.390140e-01 -8.452331e-01 0.000000e+00 5.274425e+02 2.036642e+02 9.093263e+01 0 0 0
161 1 1 6.818302e-01 1.873702e-01 6.818302e-01 -1.873702e-01 7.894946e-01 0.000000e+00 5.477010e+02 2.324657e+02 9.093263e+01 0 0 0
162 1 1 6.941726e-01 1.346268e-01 6.941726e-01 -1.346268e-01 -8.917255e-01 0.000000e+00 5.633256e+02 2.640221e+02 9.093263e+01 0 0 0
163 1 1 7.024414e-01 8.109343e-02 7.024414e-01 -8.109343e-02 -9.826986e-01 0.000000e+00 5.739499e+02 2.975937e+02 9.093263e+01 0 0 0
164 1 1 7.065879e-01 2.708412e-02 7.065879e-01 -2.708412e-02 8.229505e-01 0.000000e+00 5.793251e+02 3.323937e+02 9.093263e+01 0 0 0
165 1 1 7.071068e-01 -0.000000e+00 7.071068e-01 0.000000e+00 -3.516798e-01 0.000000e+00 5.800000e+02 3.500000e+02 1.212435e+02 0 0 0
166 1 1 7.050320e-01 -5.412850e-02 7.050320e-01 5.412850e-02 1.391753e-01 0.000000e+00 5.773045e+02 3.851093e+02 1.212435e+02 0 0 0
167 1 1 6.988198e-01 -1.079393e-01 6.988198e-01 1.079393e-01 -5.999017e-01 0.000000e+00 5.692812e+02 4.193957e+02 1.212435e+02 0 0 0
168 1 1 6.885066e-01 -1.611168e-01 6.885066e-01 1.611168e-01 7.549015e-01 0.000000e+00 5.561181e+02 4.520556e+02 1.212435e+02 0 0 0
169 1 1 6.741531e-01 -2.133487e-01 6.741531e-01 2.133487e-01 4.934049e-01 0.000000e+00 5.381238e+02 4.823233e+02 1.212435e+02 0 0 0
170 1 1 6.558433e-01 -2.643286e-01 6.558433e-01 2.643286e-01 8.758585e-03 0.000000e+00 5.157200e+02 5.094895e+02 1.212435e+02 0 0 0
171 1 1 6.336847e-01 -3.137573e-01 6.336847e-01 3.137573e-01 -4.233059e-01 0.000000e+00 4.894318e+02 5.329174e+02 1.212435e+02 0 0 0
172 1 1 6.078075e-01 -3.613448e-01 6.078075e-01 3.613448e-01 -4.286103e-01 0.000000e+00 4.598756e+02 5.520578e+02 1.212435e+02 0 0 0
173 1 1 5.783634e-01 -4.068117e-01 5.783634e-01 4.068117e-01 4.989255e-02 0.000000e+00 4.277439e+02 5.664622e+02 1.212435e+02 0 0 0
174 1 1 5.455252e-01 -4.498913e-01 5.455252e-01 4.498913e-01 3.202801e-01 0.000000e+00 3.937900e+02 5.757929e+02 1.212435e+02 0 0 0
175 1 1 5.094857e-01 -4.903308e-01 5.094857e-01 4.903308e-01 2.719127e-01 0.000000e+00 3.588096e+02 5.798312e+02 1.212435e+02 0 0 0
176 1 1 4.704563e-01 -5.278928e-01 4.704563e-01 5.278928e-01 -2.310029e-01 0.000000e+00 3.236228e+02 5.784825e+02 1.212435e+02 0 0 0
177 1 1 4.286661e-01 -5.623570e-01 4.286661e-01 5.623570e-01 -3.788484e-01 0.000000e+00 2.890543e+02 5.717783e+02 1.212435e+02 0 0 0
178 1 1 3.843603e-01 -5.935210e-01 3.843603e-01 5.935210e-01 2.310102e-01 0.000000e+00 2.559142e+02 5.598758e+02 1.212435e+02 0 0 0
179 1 1 3.377989e-01 -6.212020e-01 3.377989e-01 6.212020e-01 8.614706e-01 0.000000e+00 2.249795e+02 5.430540e+02 1.212435e+02 0 0 0
180 1 1 2.892552e-01 -6.452375e-01 2.892552e-01 6.452375e-01 4.199769e-01 0.000000e+00 1.969751e+02 5.217072e+02 1.212435e+02 0 0 0
181 1 1 2.390140e-01 -6.654865e-01 2.390140e-01 6.654865e-01 -3.153706e-01 0.000000e+00 1.725575e+02 4.963358e+02 1.212435e+02 0 0 0
182 1 1 1.873702e-01 -6.818302e-01 1.873702e-01 6.818302e-01 6.916364e-01 0.000000e+00 1.522990e+02 4.675343e+02 1.212435e+02 0 0 0
183 1 1 1.346268e-01 -6.941726e-01 1.346268e-01 6.941726e-01 -7.918021e-01 0.000000e+00 1.366744e+02 4.359779e+02 1.212435e+02 0 0 0
184 1 1 8.109343e-02 -7.024414e-01 8.109343e-02 7.024414e-01 -8.669468e-01 0.000000e+00 1.260501e+02 4.024063e+02 1.212435e+02 0 0 0
185 1 1 2.708412e-02 -7.065879e-01 2.708412e-02 7.065879e-01 -4.859623e-01 0.000000e+00 1.206749e+02 3.676063e+02 1.212435e+02 0 0 0
186 1 1 2.708412e-02 7.065879e-01 2.708412e-02 -7.065879e-01 8.551568e-02 0.000000e+00 1.206749e+02 3.323937e+02 1.212435e+02 0 0 0
187 1 1 8.109343e-02 7.024414e-01 8.109343e-02 -7.024414e-01 8.853465e-01 0.000000e+00 1.260501e+02 2.975937e+02 1.212435e+02 0 0 0
188 1 1 1.346268e-01 6.941726e-01 1.346268e-01 -6.941726e-01 9.687699e-01 0.000000e+00 1.366744e+02 2.640221e+02 1.212435e+02 0 0 0
189 1 1 1.873702e-01 6.818302e-01 1.873702e-01 -6.818302e-01 -3.939523e-01 0.000000e+00 1.522990e+02 2.324657e+02 1.212435e+02 0 0 0
190 1 1 2.390140e-01 6.654865e-01 2.390140e-01 -6.654865e-01 -1.020933e+00 0.000000e+00 1.725575e+02 2.036642e+02 1.212435e+02 0 0 0
191 1 1 2.892552e-01 6.452375e-01 2.892552e-01 -6.452375e-01 1.574162e-01 0.000000e+00 1.969751e+02 1.782928e+02 1.212435e+02 0 0 0
192 1 1 3.377989e-01 6.212020e-01 3.377989e-01 -6.212020e-01 -4.338104e-01 0.000000e+00 2.249795e+02 1.569460e+02 1.212435e+02 0 0 0
193 1 1 3.843603e-01 5.935210e-01 3.843603e-01 -5.935210e-01 3.071322e-01 0.000000e+00 2.559142e+02 1.401242e+02 1.212435e+02 0 0 0
194 1 1 4.286661e-01 5.623570e-01 4.286661e-01 -5.623570e-01 -7.720079e-02 0.000000e+00 2.890543e+02 1.282217e+02 1.212435e+02 0 0 0
195 1 1 4.704563e-01 5.278928e-01 4.704563e-01 -5.278928e-01 9.799416e-02 0.000000e+00 3.236228e+02 1.215175e+02 1.212435e+02 0 0 0
196 1 1 5.094857e-01 4.903308e-01 5.094857e-01 -4.903308e-01 6.218731e-01 0.000000e+00 3.588096e+02 1.201688e+02 1.212435e+02 0 0 0
197 1 1 5.455252e-01 4.498913e-01 5.455252e-01 -4.498913e-01 4.029801e-01 0.000000e+00 3.937900e+02 1.242071e+02 1.212435e+02 0 0 0
198 1 1 5.783634e-01 4.068117e-01 5.783634e-01 -4.068117e-01 5.505920e-01 0.000000e+00 4.277439e+02 1.335378e+02 1.212435e+02 0 0 0
199 1 1 6.078075e-01 3.613448e-01 6.078075e-01 -3.613448e-01 -5.399389e-01 0.000000e+00 4.598756e+02 1.479422e+02 1.212435e+02 0 0 0
200 1 1 6.336847e-01 3.137573e-01 6.336847e-01 -3.137573e-01 2.626313e-01 0.000000e+00 4.894318e+02 1.670826e+02 1.212435e+02 0 0 0
201 1 1 6.558433e-01 2.643286e-01 6.558433e-01 -2.643286e-01 6.188866e-01 0.000000e+00 5.157200e+02 1.905105e+02 1.212435e+02 0 0 0
202 1 1 6.741531e-01 2.133487e-01 6.741531e-01 -2.133487e-01 -3.064114e-02 0.000000e+00 5.381238e+02 2.176767e+02 1.212435e+02 0 0 0
203 1 1 6.885066e-01 1.611168e-01 6.885066e-01 -1.611168e-01 2.717196e-01 0.000000e+00 5.561181e+02 2.479444e+02 1.212435e+02 0 0 0
204 1 1 6.988198e-01 1.079393e-01 6.988198e-01 -1.079393e-01 -1.623409e-01 0.000000e+00 5.692812e+02 2.806043e+02 1.212435e+02 0 0 0
205 1 1 7.050320e-01 5.412850e-02 7.050320e-01 -5.412850e-02 1.818878e-01 0.000000e+00 5.773045e+02 3.148907e+02 1.212435e+02 0 0 0
206 1 1 7.065879e-01 -2.708412e-02 7.065879e-01 2.708412e-02 -9.617299e-02 0.000000e+00 5.793251e+02 3.676063e+02 1.515544e+02 0 0 0
207 1 1 7.024414e-01 -8.109343e-02 7.024414e-01 8.109343e-02 -2.536921e-01 0.000000e+00 5.739499e+02 4.024063e+02 1.515544e+02 0 0 0
208 1 1 6.941726e-01 -1.346268e-01 6.941726e-01 1.346268e-01 7.809861e-01 0.000000e+00 5.633256e+02 4.359779e+02 1.515544e+02 0 0 0
209 1 1 6.818302e-01 -1.873702e-01 6.818302e-01 1.873702e-01 4.226145e-01 0.000000e+00 5.477010e+02 4.675343e+02 1.515544e+02 0 0 0
210 1 1 6.654865e-01 -2.390140e-01 6.654865e-01 2.390140e-01 8.910744e-01 0.000000e+00 5.274425e+02 4.963358e+02 1.515544e+02 0 0 0
211 1 1 6.452375e-01 -2.892552e-01 6.452375e-01 2.892552e-01 -1.473890e-01 0.000000e+00 5.030249e+02 5.217072e+02 1.515544e+02 0 0 0
212 1 1 6.212020e-01 -3.377989e-01 6.212020e-01 3.377989e-01 5.971068e-01 0.000000e+00 4.750205e+02 5.430540e+02 1.515544e+02 0 0 0
213 1 1 5.935210e-01 -3.843603e-01 5.935210e-01 3.843603e-01 -7.392887e-01 0.000000e+00 4.440858e+02 5.598758e+02 1.515544e+02 0 0 0
214 1 1 5.623570e-01 -4.286661e-01 5.623570e-01 4.286661e-01 4.099208e-01 0.000000e+00 4.109457e+02 5.717783e+02 1.515544e+02 0 0 0
215 1 1 5.278928e-01 -4.704563e-01 5.278928e-01 4.704563e-01 -7.196292e-01 0.000000e+00 3.763772e+02 5.784825e+02 1.515544e+02 0 0 0
216 1 1 4.903308e-01 -5.094857e-01 4.903308e-01 5.094857e-01 6.818414e-01 0.000000e+00 3.411904e+02 5.798312e+02 1.515544e+02 0 0 0
217 1 1 4.498913e-01 -5.455252e-01 4.498913e-01 5.455252e-01 -5.698389e-01 0.000000e+00 3.062100e+02 5.757929e+02 1.515544e+02 0 0 0
218 1 1 4.068117e-01 -5.783634e-01 4.068117e-01 5.783634e-01 -9.722022e-01 0.000000e+00 2.722561e+02 5.664622e+02 1.515544e+02 0 0 0
219 1 1 3.613448e-01 -6.078075e-01 3.613448e-01 6.078075e-01 7.032553e-01 0.000000e+00 2.401244e+02 5.520578e+02 1.515544e+02 0 0 0
220 1 1 3.137573e-01 -6.336847e-01 3.137573e-01 6.336847e-01 -6.388647e-01 0.000000e+00 2.105682e+02 5.329174e+02 1.515544e+02 0 0 0
221 1 1 2.643286e-01 -6.558433e-01 2.643286e-01 6.558433e-01 -4.228400e-02 0.000000e+00 1.842800e+02 5.094895e+02 1.515544e+02 0 0 0
222 1 1 2.133487e-01 -6.741531e-01 2.133487e-01 6.741531e-01 1.655753e-01 0.000000e+00 1.618762e+02 4.823233e+02 1.515544e+02 0 0 0
223 1 1 1.611168e-01 -6.885066e-01 1.611168e-01 6.885066e-01 -3.032603e-01 0.000000e+00 1.438819e+02 4.520556e+02 1.515544e+02 0 0 0
224 1 1 1.079393e-01 -6.988198e-01 1.079393e-01 6.988198e-01 -5.488506e-01 0.000000e+00 1.307188e+02 4.193957e+02 1.515544e+02 0 0 0