ITEM: TIMESTEP
0
ITEM: NUMBER OF ATOMS
5882
ITEM: BOX BOUNDS pp pp pp
0 3600
0 3600
0 3600
ITEM: ATOMS id type xu yu zu vx vy vz 
1 1 2572.99 3121.14 1913.93 0.653066 0.591145 10 
2 1 2622.6 3094.51 1859.02 0.794223 -0.495032 12 
3 1 2761.95 2987.75 1940.84 -0.247275 -0.960441 10 
4 1 2587.34 3105.02 1981.52 -0.37178 -0.714678 10 
5 1 2639.04 3078.96 1927.24 0.481321 -1.2379 11 
6 1 2831.18 2917.25 2010.55 0.472162 0.0674473 10 
7 1 2546.09 3108.3 2095.98 -0.330834 -0.135974 10 
8 1 2600.59 3085.98 2047.47 0.289369 -0.566954 10 
9 1 2653.3 3061.1 1993.46 -0.0232792 -1.01627 10 
10 1 2703.24 3033.39 1937.25 -0.589817 0.59456 10 
11 1 2894.26 2839.48 2079.24 0.116177 -0.661888 10 
12 1 2500.19 3103.4 2208.42 -0.79426 -0.186697 9 
13 1 2556.86 3085.19 2162.43 0.841682 0.0690304 10 
14 1 2612.24 3064.24 2112.85 -0.109188 0.331907 10 
15 1 2665.74 3040.68 2059.07 -0.117582 -1.11459 10 
16 1 2716.72 3014.21 2003.11 0.47896 -0.0248235 10 
17 1 2950.72 2754.85 2146.46 -0.82605 -0.0719776 8 
18 1 2449.9 3090.16 2318.67 -0.238081 -1.08907 9 
19 1 2508.58 3076.16 2274.61 0.102423 0.33507 9 
20 1 2566.09 3059.34 2227.88 -0.111198 0.0489635 10 
21 1 2622.2 3039.83 2177.8 0.408176 -0.807262 10 
22 1 2676.41 3017.65 2124.28 0.362446 -0.596809 10 
23 1 2728.22 2992.56 2068.55 -0.0172775 0.530889 10 
24 1 2775.87 2966.29 2008.21 -0.651295 -0.457649 10 
25 1 3000.03 2663.92 2211.67 0.0173386 -0.661812 8 
26 1 2395.56 3068.57 2426.06 -0.706039 0.288516 8 
27 1 2456.09 3058.74 2383.99 -0.374114 -0.523627 9 
28 1 2515.5 3046.11 2339.61 0.436671 -0.229992 10 
29 1 2573.69 3030.74 2292.54 -0.0645021 0.452873 10 
30 1 2630.42 3012.72 2242.31 -0.344981 -0.303373 10 
31 1 2685.29 2991.97 2189.09 -0.57874 -0.332185 10 
32 1 2737.87 2968.34 2133.62 0.260223 -0.973416 10 
33 1 2787.08 2942.91 2074.5 0.64631 0.0765369 10 
34 1 2337.59 3038.71 2529.73 0.18015 0.487383 8 
35 1 2399.76 3032.94 2489.98 -0.633314 0.164053 8 
36 1 2460.86 3024.45 2448.01 0.954304 -1.27949 9 
37 1 2520.84 3013.24 2403.61 -0.147111 -0.223063 10 
38 1 2579.6 2999.36 2356.49 0.188518 -0.563194 10 
39 1 2636.88 2982.86 2306.35 0.944618 -0.983651 10 
40 1 2692.36 2963.61 2253.47 -0.870291 0.329476 10 
41 1 2745.65 2941.5 2198.3 0.457992 0.109253 10 
42 1 2796.03 2917.23 2140.05 0.210678 0.212414 10 
43 1 2842.31 2891.96 2077.74 0.793883 -0.82365 9 
44 1 3000.88 2628.78 2276.37 -0.119715 0.0579704 8 
45 1 2998.93 2591.73 2340.06 -0.124443 -1.17209 8 
46 1 2402.64 2994.36 2552.5 0.927672 -0.356177 8 
47 1 2464.13 2987.24 2510.86 -0.951064 0.496528 9 
48 1 2524.55 2977.5 2466.66 0.960946 -1.29371 10 
49 1 2583.77 2965.14 2419.73 0.0321129 0.609893 10 
50 1 2641.54 2950.22 2369.86 0.830682 -0.911766 10 
51 1 2697.56 2932.53 2317.37 0.555294 -0.892149 10 
52 1 2751.52 2912.01 2262.56 -0.561315 -1.18427 10 
53 1 2802.88 2889.1 2205 0.983754 -0.0389679 10 
54 1 2850.77 2864.67 2143.9 0.886859 -0.739302 9 
55 1 2955.29 2722.64 2212.26 0.914439 -1.2605 8 
56 1 2957.12 2688.47 2277.09 -0.582828 -0.741942 8 
57 1 2956.28 2652.19 2341.03 -0.52722 -0.00615245 8 
58 1 2952.85 2613.65 2404.01 -0.882528 -0.496454 8 
59 1 2465.85 2947.03 2572.59 -0.279412 -0.0380601 9 
60 1 2526.55 2938.81 2528.79 0.954458 -0.0452371 10 
61 1 2586.13 2928.04 2482.24 0.285693 -1.20751 10 
62 1 2644.34 2914.72 2432.79 0.173938 0.251328 10 
63 1 2700.85 2898.68 2380.75 -0.938067 -0.384427 10 
64 1 2755.42 2879.83 2326.36 0.307909 -0.145489 10 
65 1 2807.64 2858.43 2269.38 0.26305 0.582143 10 
66 1 2856.83 2835.16 2209.23 -0.0849294 0.413005 10 
67 1 2902.27 2810.59 2145.88 -0.297647 -0.751659 9 
68 1 2907.6 2779.69 2211.53 -0.663003 -0.465354 9 
69 1 2910.39 2746.62 2276.31 -0.319958 -0.405198 9 
70 1 2910.7 2711.25 2340.28 -0.145154 -0.173214 9 
71 1 2908.5 2673.45 2403.51 -0.231478 -0.0411579 9 
72 1 2903.89 2633.12 2465.77 0.384175 0.631419 8 
73 1 2526.83 2897.07 2589.98 -0.613829 -0.560449 10 
74 1 2586.63 2887.96 2543.95 0.448424 -0.0787323 10 
75 1 2645.18 2876.33 2495.06 0.710385 0.472082 10 
76 1 2702.17 2862 2443.55 0.111652 0.0882459 10 
77 1 2757.31 2844.9 2389.64 -0.912376 -0.263165 10 
78 1 2810.29 2825.14 2333.21 -0.139305 0.211016 10 
79 1 2860.59 2803.27 2273.84 -0.752928 -1.15488 10 
80 1 2862.05 2768.92 2337.74 -0.0699108 0.00652852 10 
81 1 2861.2 2731.99 2400.97 -0.45923 0.670439 10 
82 1 2857.94 2692.43 2463.51 0.742978 -1.04095 10 
83 1 2852.44 2650.08 2525.02 0.239379 0.188109 12 
84 1 2585.22 2844.83 2604.78 0.934602 -0.825649 11 
85 1 2644.05 2834.98 2556.53 -0.354617 0.593451 10 
86 1 2701.44 2822.45 2505.64 -0.558931 -0.367753 10 
87 1 2757.12 2807.15 2452.3 -0.178411 -0.178459 10 
88 1 2810.8 2789.19 2396.42 0.0176213 0.273143 10 
89 1 2809.07 2750.49 2458.99 0.830556 0.2991 10 
90 1 2805.03 2708.98 2520.83 -0.306852 0.129267 11 
91 1 2798.83 2664.54 2581.55 -0.447062 -0.568421 12 
92 1 2640.84 2790.59 2617.09 -0.119272 -1.24909 12 
93 1 2698.58 2779.96 2566.91 0.0621168 -1.14639 12 
94 1 2754.75 2766.56 2514.24 0.0832841 -0.743704 10 
95 1 2750.12 2723.05 2575.35 -0.799404 -0.540005 12 
96 1 2743.4 2676.54 2635.22 0.315055 0.167972 12 
97 1 2693.51 2734.47 2627.24 -0.299555 -1.0929 12 
98 1 2606.94 3105.66 1800 -0.693643 0.648033 15 
99 1 1800 2606.94 494.336 0.397621 -0.255684 15 
100 1 993.055 3105.66 1800 -0.872216 -1.28613 15 
101 1 1800 2606.94 3105.66 0.142769 -0.221646 15 
102 1 3105.66 1800 2606.94 -0.0957634 0.398567 15 
103 1 494.336 1800 2606.94 -0.404064 0.206585 15 
104 1 1800 993.055 3105.66 -0.559086 -0.345823 15 
105 1 494.336 1800 993.055 -0.549177 0.161898 15 
106 1 993.055 494.336 1800 -0.540922 -1.08327 15 
107 1 3105.66 1800 993.055 -0.478768 -0.725171 15 
108 1 2606.94 494.336 1800 -0.575716 -0.941614 15 
109 1 1800 993.055 494.336 -0.651559 0.132935 15 
110 1 2686.17 2686.17 2686.17 -0.000982676 0.426907 12 
111 1 2347.69 1800 366.139 -0.191809 -0.00443685 12 
112 1 913.825 2686.17 913.825 -0.0778958 -1.26958 12 
113 1 1252.31 1800 3233.86 -0.580781 -1.03303 12 
114 1 3233.86 2347.69 1800 -0.354718 -0.582296 12 
115 1 1800 3233.86 1252.31 0.527501 0.471495 12 
116 1 913.825 2686.17 2686.17 0.640686 -1.1866 12 
117 1 2686.17 913.825 2686.17 0.370663 -0.655878 12 
118 1 366.139 1252.31 1800 0.234176 -0.77498 12 
119 1 2686.17 2686.17 913.825 -0.666369 -0.454789 12 
120 1 1800 3233.86 2347.69 -0.890511 0.459638 12 
121 1 913.825 913.825 2686.17 0.317358 -0.52902 12 
122 1 3233.86 1252.31 1800 0.496923 -1.1228 12 
123 1 2347.69 1800 3233.86 0.0672479 -0.202094 12 
124 1 1252.31 1800 366.139 0.335134 0.54813 12 
125 1 1800 366.139 1252.31 0.211557 -0.98992 12 
126 1 2686.17 913.825 913.825 -0.00677503 -0.762165 12 
127 1 1800 366.139 2347.69 -0.69943 -0.0154519 12 
128 1 366.139 2347.69 1800 0.688682 -0.520157 12 
129 1 913.825 913.825 913.825 0.269938 -0.0643949 12 
130 1 3334.9 1800 1800 0.988141 -0.767622 8 
131 1 1032.55 1325.69 558.24 0.0603547 -0.351222 8 
132 1 265.1 1800 1800 -0.285315 -0.137647 8 
133 1 2567.45 1325.69 3041.76 0.404049 -0.707956 8 
134 1 2567.45 2274.31 558.24 -0.398421 -1.13115 8 
135 1 1032.55 2274.31 558.24 0.768026 0.550293 8 
136 1 1032.55 1325.69 3041.76 -0.325671 -1.19278 8 
137 1 3041.76 1032.55 1325.69 -0.0427955 0.0086187 8 
138 1 1325.69 558.24 2567.45 -0.451358 -0.37883 8 
139 1 1325.69 3041.76 1032.55 -0.137846 0.0882645 8 
140 1 558.24 2567.45 2274.31 0.234621 -0.569145 8 
141 1 1800 265.1 1800 0.0702342 -0.831106 8 
142 1 3041.76 2567.45 1325.69 -0.130542 -0.571644 8 
143 1 1800 3334.9 1800 -0.599436 0.331159 8 
144 1 558.24 1032.55 2274.31 -0.334521 0.487391 8 
145 1 3041.76 2567.45 2274.31 0.255008 -0.198302 8 
146 1 2274.31 3041.76 1032.55 0.735282 -0.756541 8 
147 1 1325.69 558.24 1032.55 -0.461856 -0.350616 8 
148 1 1800 1800 3334.9 0.681128 -0.465379 8 
149 1 2274.31 3041.76 2567.45 -0.89784 -1.03752 8 
150 1 1800 1800 265.1 -0.954595 -0.129556 8 
151 1 2274.31 558.24 2567.45 0.0722891 -0.960131 8 
152 1 1325.69 3041.76 2567.45 -0.906026 -1.10291 8 
153 1 2274.31 558.24 1032.55 0.461578 0.493206 8 
154 1 558.24 2567.45 1325.69 -0.159322 0.0677741 8 
155 1 558.24 1032.55 1325.69 0.267088 -0.424267 8 
156 1 3041.76 1032.55 2274.31 0.973459 0.325251 8 
157 1 2567.45 2274.31 3041.76 0.12814 -0.162127 8 
158 1 2567.45 1325.69 558.24 -0.666595 -0.680948 8 
159 1 1032.55 2274.31 3041.76 0.128676 -0.115917 8 
160 1 1913.93 2572.99 478.856 0.652148 -0.56793 10 
161 1 1836.48 2563.58 469.008 0.170037 0.0829766 12 
162 1 1800 2393.23 384.374 0.205946 -0.962543 10 
163 1 1956.46 2521.72 454.431 -0.854608 -0.838976 10 
164 1 1878.64 2511.8 442.401 -0.749899 0.644735 11 
165 1 1800 2279.95 342.068 -0.0637966 -0.164536 10 
166 1 2070.69 2479.9 450.783 -0.404065 -1.18449 10 
167 1 1997.3 2469.25 432.849 -1.00187 -1.27753 10 
168 1 1919.56 2459.84 419.335 -0.900307 0.60584 10 
169 1 1840.55 2450.09 410.159 0.879879 0.695908 10 
170 1 1800 2163.19 308.689 -0.889009 0.515741 10 
171 1 2183.09 2433.89 455.626 -0.945366 0.642672 9 
172 1 2111.93 2424.64 433.091 0.933686 -0.469597 10 
173 1 2037.65 2415.37 414.086 0.77531 0.505498 10 
174 1 1960.12 2406.67 399.202 0.954213 0.290211 10 
175 1 1881.18 2397.48 388.493 -0.953322 -0.391845 10 
176 1 1800 2043.67 284.565 -0.664595 -0.330988 8 
177 1 2293.34 2383.6 468.856 0.19753 0.0253399 9 
178 1 2224.03 2376.16 442.005 0.312609 0.289687 9 
179 1 2152.27 2368.15 418.325 0.986594 0.287307 10 
180 1 2077.68 2360.07 398.167 -0.209052 0.557347 10 
181 1 2000.42 2352.13 381.936 0.700335 0.53669 10 
182 1 1921.67 2343.69 369.785 0.934745 -1.08467 10 
183 1 1840.91 2337.88 363.014 0.77945 -0.95394 10 
184 1 1800 1922.26 269.977 -0.780974 -1.20633 8 
185 1 2400.72 2329.23 490.432 0.347754 0.0722642 8 
186 1 2333.39 2323.6 459.383 -0.496519 0.0997016 9 
187 1 2263.88 2317.22 431.344 0.342715 0.455358 10 
188 1 2191.94 2310.34 406.497 0.174745 -0.790978 10 
189 1 2117.38 2303.34 385.135 0.84608 -0.0777542 10 
190 1 2040.47 2296.2 367.564 -0.615698 -0.924318 10 
191 1 1962 2288.58 353.984 -0.414933 0.569353 10 
192 1 1881.72 2282.36 345.157 -0.618364 0.259402 10 
193 1 2504.35 2271.15 520.225 0.647607 -0.252816 8 
194 1 2439.32 2267.14 485.099 0.53047 -0.195495 8 
195 1 2372.2 2262.38 452.887 0.851917 -0.549077 9 
196 1 2302.82 2256.98 423.679 -0.597545 0.564135 10 
197 1 2231.03 2251.15 397.647 -0.409942 -0.683097 10 
198 1 2156.73 2245.17 375.048 0.308668 0.492185 10 
199 1 2080.26 2238.89 356.134 0.95278 -0.0781534 10 
200 1 2002.15 2232.12 341.123 -0.447793 -0.551221 10 
201 1 1922.34 2226.05 330.497 0.782681 -0.0546729 10 
202 1 1840.98 2222.45 324.949 0.213688 0.101366 9 
203 1 1841.06 1861.22 266.871 0.541858 -0.324341 8 
204 1 1882.11 1800 267.298 0.0735697 0.283188 8 
205 1 2476.54 2203.78 482.74 -0.877158 0.378816 8 
206 1 2409.91 2199.84 449.421 0.483555 -1.11161 9 
207 1 2340.93 2195.39 419.067 -0.857392 -1.2919 10 
208 1 2269.54 2190.56 391.84 0.832291 -0.803248 10 
209 1 2195.69 2185.57 367.979 0.725138 0.02771 10 
210 1 2119.75 2180.19 347.715 0.342996 -0.147517 10 
211 1 2042.09 2174.32 331.262 0.838876 -0.446547 10 
212 1 1962.76 2168.7 318.956 -0.0913965 0.547043 10 
213 1 1881.84 2164.68 311.299 -0.752313 0.104585 9 
214 1 1840.99 1983.3 276.636 -0.873114 -0.58871 8 
215 1 1881.96 1922.68 272.207 0.00059466 -0.240365 8 
216 1 1922.9 1861.61 271.269 -0.115159 0.124867 8 
217 1 1963.66 1800 273.85 0.969594 -0.0901607 8 
218 1 2446.56 2135.91 449.06 -0.116731 -0.568951 9 
219 1 2378.24 2132.41 417.589 0.120537 -0.766069 10 
220 1 2307.46 2128.56 389.166 0.570313 -1.13025 10 
221 1 2234.24 2124.51 364.017 -0.762398 0.11233 10 
222 1 2158.93 2120.1 342.39 0.749098 -0.596095 10 
223 1 2081.81 2115.18 324.478 0.897287 0.554471 10 
224 1 2002.99 2110.22 310.544 -0.960833 0.040657 10 
225 1 1922.54 2106.26 300.965 0.479085 -1.11711 10 
226 1 1840.98 2104.02 296.068 0.722293 0.646014 9 
227 1 1881.88 2044.55 286.921 0.0303643 -1.03209 9 
228 1 1922.67 1984.55 281.18 -0.472879 0.104723 9 
229 1 1963.34 1923.85 278.849 0.166239 -1.05823 9 
230 1 2003.91 1862.34 279.983 0.530513 -0.798138 9 
231 1 2044.12 1800 284.638 0.286598 -0.9692 8 
232 1 2414.71 2067.96 419.331 -0.695115 -1.18448 10 
233 1 2344.75 2065.12 389.726 -0.668821 0.561652 10 
234 1 2272.32 2062.06 363.285 -0.516157 -0.710438 10 
235 1 2197.74 2058.62 340.26 -0.740577 0.213712 10 
236 1 2121.27 2054.7 320.867 -0.116708 -0.20719 10 
237 1 2043.02 2050.56 305.315 -0.183345 -0.0824127 10 
238 1 1963.08 2047.01 293.908 0.62736 -0.0865547 10 
239 1 2003.43 1986.81 290.153 0.364278 -0.0840955 10 
240 1 2043.6 1925.58 289.766 -0.00671157 -0.911982 10 
241 1 2083.59 1863.32 292.856 -0.00904089 0.692849 10 
242 1 2123.03 1800 299.476 -0.409301 0.543634 12 
243 1 2381.34 2000.24 393.634 0.140692 -0.860564 11 
244 1 2309.85 1998.23 365.886 0.569606 -0.0227326 10 
245 1 2236.11 1995.8 341.442 -0.658041 -0.695186 10 
246 1 2160.39 1992.88 320.529 -0.827603 0.0522784 10 
247 1 2082.79 1989.71 303.351 0.096687 0.355182 10 
248 1 2122.31 1927.64 304.761 0.0802627 -0.706588 10 
249 1 2161.54 1864.4 309.678 -0.880503 0.33309 11 
250 1 2200.03 1800 318.145 0.219736 -0.274177 12 
251 1 2346.73 1933.03 371.957 0.878444 -0.0679347 12 
252 1 2273.98 1931.67 346.065 -0.492837 0.206536 12 
253 1 2199.14 1929.81 323.6 0.443835 -1.15893 10 
254 1 2237.45 1865.49 330.215 0.682873 0.683248 12 
255 1 2274.88 1800 340.408 -0.408076 0.539643 12 
256 1 2311.26 1866.27 354.269 -0.698399 -0.588332 12 
257 1 1027.01 3121.14 1686.07 -0.24174 -1.16777 10 
258 1 977.402 3094.51 1740.98 -0.14667 0.182842 12 
259 1 838.052 2987.75 1659.16 0.640003 -0.184649 10 
260 1 1012.66 3105.02 1618.48 -0.583606 0.191308 10 
261 1 960.958 3078.96 1672.76 -0.819878 -0.968715 11 
262 1 768.822 2917.25 1589.45 -0.333159 0.0145436 10 
263 1 1053.91 3108.3 1504.02 0.723222 0.272486 10 
264 1 999.41 3085.98 1552.53 -0.247548 0.600245 10 
265 1 946.702 3061.1 1606.54 0.671703 0.033447 10 
266 1 896.76 3033.39 1662.75 -0.755686 -0.800511 10 
267 1 705.737 2839.48 1520.76 0.938207 -0.0364028 10 
268 1 1099.81 3103.4 1391.58 0.0206391 -0.643145 9 
269 1 1043.14 3085.19 1437.57 0.66651 -0.82126 10 
270 1 987.759 3064.24 1487.15 -0.833878 -0.35858 10 
271 1 934.259 3040.68 1540.93 -0.940669 -0.134491 10 
272 1 883.285 3014.21 1596.89 -0.780057 -0.590995 10 
273 1 649.285 2754.85 1453.54 -0.677147 -0.735655 8 
274 1 1150.1 3090.16 1281.33 -0.788332 0.578565 9 
275 1 1091.42 3076.16 1325.39 -0.52984 -0.917862 9 
276 1 1033.9 3059.34 1372.12 -0.137036 0.0278747 10 
277 1 977.803 3039.83 1422.2 -0.649493 -0.418534 10 
278 1 923.588 3017.65 1475.72 -0.352914 -0.390258 10 
279 1 871.777 2992.56 1531.45 0.420322 -0.941039 10 
280 1 824.125 2966.29 1591.79 -0.921114 0.307177 10 
281 1 599.965 2663.92 1388.33 0.288005 -0.558935 8 
282 1 1204.44 3068.57 1173.94 0.299053 -1.10176 8 
283 1 1143.91 3058.74 1216.01 0.714751 -0.630765 9 
284 1 1084.5 3046.11 1260.39 -0.826806 -0.264528 10 
285 1 1026.31 3030.74 1307.46 0.816367 0.114263 10 
286 1 969.578 3012.72 1357.69 -0.584497 -0.831364 10 
287 1 914.706 2991.97 1410.91 0.0632817 0.355299 10 
288 1 862.13 2968.34 1466.38 0.228142 -1.01001 10 
289 1 812.923 2942.91 1525.5 0.328238 0.600665 10 
290 1 1262.41 3038.71 1070.27 0.0211737 -0.968554 8 
291 1 1200.24 3032.94 1110.02 0.987987 -1.02353 8 
292 1 1139.14 3024.45 1151.99 0.874946 -0.311982 9 
293 1 1079.16 3013.24 1196.39 -0.25416 -0.681091 10 
294 1 1020.4 2999.36 1243.51 -0.314789 -0.881272 10 
295 1 963.117 2982.86 1293.65 0.566487 0.575116 10 
296 1 907.642 2963.61 1346.53 0.228893 -1.25244 10 
297 1 854.352 2941.5 1401.7 -0.257124 -1.00683 10 
298 1 803.97 2917.23 1459.95 0.940617 0.294284 10 
299 1 757.691 2891.96 1522.26 -0.0336259 0.438273 9 
300 1 599.12 2628.78 1323.63 0.82266 -0.910155 8 
301 1 601.074 2591.73 1259.94 0.960546 0.406888 8 
302 1 1197.36 2994.36 1047.5 0.978067 0.339251 8 
303 1 1135.87 2987.24 1089.14 -0.104851 0.533992 9 
304 1 1075.45 2977.5 1133.34 0.430877 -0.645316 10 
305 1 1016.23 2965.14 1180.27 -0.621018 0.638875 10 
306 1 958.463 2950.22 1230.14 -0.885901 -0.748181 10 
307 1 902.439 2932.53 1282.63 -0.217739 -0.0951958 10 
308 1 848.483 2912.01 1337.44 0.634122 -0.994521 10 
309 1 797.124 2889.1 1395 0.902472 -1.13545 10 
310 1 749.226 2864.67 1456.1 0.462008 -0.788719 9 
311 1 644.713 2722.64 1387.74 0.66282 0.0586189 8 
312 1 642.88 2688.47 1322.91 0.374074 -0.681128 8 
313 1 643.721 2652.19 1258.97 0.62697 -0.459793 8 
314 1 647.148 2613.65 1195.99 -0.0132336 -0.325731 8 
315 1 1134.15 2947.03 1027.41 0.0153721 -1.05604 9 
316 1 1073.45 2938.81 1071.21 -0.948476 -0.582121 10 
317 1 1013.87 2928.04 1117.76 -0.976244 -0.758267 10 
318 1 955.664 2914.72 1167.21 -0.205115 -0.261909 10 
319 1 899.147 2898.68 1219.25 -0.211959 -0.300499 10 
320 1 844.577 2879.83 1273.64 -0.365992 -0.677023 10 
321 1 792.362 2858.43 1330.62 -0.88449 -0.771064 10 
322 1 743.166 2835.16 1390.77 -0.56892 -1.134 10 
323 1 697.731 2810.59 1454.12 0.920666 0.165391 9 
324 1 692.404 2779.69 1388.47 -0.773816 -0.495063 9 
325 1 689.612 2746.62 1323.69 -0.874118 -1.03712 9 
326 1 689.305 2711.25 1259.72 0.872193 -0.00883135 9 
327 1 691.5 2673.45 1196.49 0.584941 0.450541 9 
328 1 696.108 2633.12 1134.23 -0.346415 0.247554 8 
329 1 1073.17 2897.07 1010.02 0.252619 0.176768 10 
330 1 1013.37 2887.96 1056.05 -0.176448 -0.518086 10 
331 1 954.817 2876.33 1104.94 -0.741761 -1.24322 10 
332 1 897.831 2862 1156.45 -0.887869 -0.251119 10 
333 1 842.695 2844.9 1210.36 -0.538703 0.598641 10 
334 1 789.709 2825.14 1266.79 0.195887 -1.27313 10 
335 1 739.414 2803.27 1326.16 0.45226 -0.708397 10 
336 1 737.949 2768.92 1262.26 -0.0134825 -1.06898 10 
337 1 738.801 2731.99 1199.03 0.406598 -1.15196 10 
338 1 742.059 2692.43 1136.49 -0.0941397 -0.401479 10 
339 1 747.564 2650.08 1074.98 -0.518953 -0.636328 12 
340 1 1014.77 2844.83 995.215 -0.406041 -1.00928 11 
341 1 955.955 2834.98 1043.47 -0.587016 -0.986858 10 
342 1 898.562 2822.45 1094.36 -0.198248 0.677979 10 
343 1 842.88 2807.15 1147.7 0.244356 -0.813918 10 
344 1 789.205 2789.19 1203.58 -0.912025 -0.108563 10 
345 1 790.926 2750.49 1141.01 0.505372 -0.639132 10 
346 1 794.973 2708.98 1079.17 0.978388 -0.0521977 11 
347 1 801.169 2664.54 1018.45 -0.300044 0.596815 12 
348 1 959.162 2790.59 982.911 0.715991 -1.00916 12 
349 1 901.418 2779.96 1033.09 0.44495 -0.990688 12 
350 1 845.248 2766.56 1085.76 -0.676613 -0.143421 10 
351 1 849.881 2723.05 1024.65 -0.39045 0.246329 12 
352 1 856.605 2676.54 964.776 0.736591 -1.15525 12 
353 1 906.489 2734.47 972.763 0.69758 0.225713 12 
354 1 1686.07 2572.99 3121.14 -0.69397 -0.485179 10 
355 1 1763.52 2563.58 3130.99 -0.348001 -0.958766 12 
356 1 1800 2393.23 3215.63 -0.135217 -0.4698 10 
357 1 1643.54 2521.72 3145.57 -0.122496 0.543018 10 
358 1 1721.36 2511.8 3157.6 0.912365 0.367237 11 
359 1 1800 2279.95 3257.93 -0.565323 0.180768 10 
360 1 1529.31 2479.9 3149.22 -0.948184 0.372607 10 
361 1 1602.7 2469.25 3167.15 0.271888 0.105972 10 
362 1 1680.44 2459.84 3180.66 -0.361728 -0.855521 10 
363 1 1759.45 2450.09 3189.84 0.125868 -0.611249 10 
364 1 1800 2163.19 3291.31 -0.385011 0.184075 10 
365 1 1416.91 2433.89 3144.37 -0.644411 -0.201975 9 
366 1 1488.07 2424.64 3166.91 -0.763569 0.309347 10 
367 1 1562.35 2415.37 3185.91 0.0133302 -0.850774 10 
368 1 1639.88 2406.67 3200.8 -0.583551 0.528517 10 
369 1 1718.82 2397.48 3211.51 -0.739289 -0.429548 10 
370 1 1800 2043.67 3315.44 0.525039 -0.772032 8 
371 1 1306.66 2383.6 3131.14 0.502654 -1.26986 9 
372 1 1375.97 2376.16 3158 0.951856 -0.00901962 9 
373 1 1447.73 2368.15 3181.68 -0.19469 0.395318 10 
374 1 1522.32 2360.07 3201.83 -0.514897 -0.917588 10 
375 1 1599.58 2352.13 3218.06 -0.619064 0.401052 10 
376 1 1678.33 2343.69 3230.21 0.387336 -0.997858 10 
377 1 1759.09 2337.88 3236.99 -0.111497 -1.12249 10 
378 1 1800 1922.26 3330.02 0.223899 0.497951 8 
379 1 1199.28 2329.23 3109.57 0.0901938 0.443482 8 
380 1 1266.61 2323.6 3140.62 0.440993 -0.00947125 9 
381 1 1336.12 2317.22 3168.66 -0.81871 0.253272 10 
382 1 1408.06 2310.34 3193.5 -0.0706633 0.573837 10 
383 1 1482.62 2303.34 3214.87 0.259837 -0.0736405 10 
384 1 1559.53 2296.2 3232.44 -0.601849 0.227122 10 
385 1 1638 2288.58 3246.02 -0.275345 0.362378 10 
386 1 1718.28 2282.36 3254.84 -0.85792 -0.75603 10 
387 1 1095.65 2271.15 3079.78 0.0922557 -0.530947 8 
388 1 1160.68 2267.14 3114.9 -0.844831 -0.640716 8 
389 1 1227.8 2262.38 3147.11 0.365253 -0.598443 9 
390 1 1297.18 2256.98 3176.32 -0.635404 -0.540452 10 
391 1 1368.97 2251.15 3202.35 0.317478 -0.821145 10 
392 1 1443.27 2245.17 3224.95 -0.397995 -0.503535 10 
393 1 1519.74 2238.89 3243.87 0.209881 -0.441398 10 
394 1 1597.85 2232.12 3258.88 0.953969 -0.7186 10 
395 1 1677.66 2226.05 3269.5 0.164151 -0.182189 10 
396 1 1759.02 2222.45 3275.05 0.968235 -1.12005 9 
397 1 1758.94 1861.22 3333.13 0.0676454 -0.462476 8 
398 1 1717.89 1800 3332.7 0.0685609 0.38451 8 
399 1 1123.46 2203.78 3117.26 0.91874 -1.18263 8 
400 1 1190.09 2199.84 3150.58 -0.36306 0.0875505 9 
401 1 1259.07 2195.39 3180.93 -0.366478 -1.15846 10 
402 1 1330.46 2190.56 3208.16 0.932437 -0.498731 10 
403 1 1404.31 2185.57 3232.02 -0.891847 0.581353 10 
404 1 1480.25 2180.19 3252.29 -0.999155 -0.777163 10 
405 1 1557.91 2174.32 3268.74 0.409046 -0.056208 10 
406 1 1637.24 2168.7 3281.04 -0.409687 -0.666023 10 
407 1 1718.16 2164.68 3288.7 -0.792665 -0.424215 9 
408 1 1759.01 1983.3 3323.36 -0.033069 -0.0476377 8 
409 1 1718.04 1922.68 3327.79 -0.227455 -0.49595 8 
410 1 1677.1 1861.61 3328.73 -0.508332 -0.752307 8 
411 1 1636.34 1800 3326.15 -0.870416 0.350228 8 
412 1 1153.44 2135.91 3150.94 0.786983 -0.225107 9 
413 1 1221.76 2132.41 3182.41 -0.412334 0.0477685 10 
414 1 1292.54 2128.56 3210.83 -0.122386 -0.328924 10 
415 1 1365.76 2124.51 3235.98 0.357437 0.677435 10 
416 1 1441.07 2120.1 3257.61 -0.112548 -0.00582506 10 
417 1 1518.19 2115.18 3275.52 0.361803 0.6888 10 
418 1 1597.01 2110.22 3289.46 0.368208 -0.68122 10 
419 1 1677.46 2106.26 3299.03 -0.775885 0.437945 10 
420 1 1759.02 2104.02 3303.93 -0.446891 0.0448242 9 
421 1 1718.12 2044.55 3313.08 0.685687 -0.164721 9 
422 1 1677.33 1984.55 3318.82 0.0913379 -0.480414 9 
423 1 1636.66 1923.85 3321.15 -0.988521 0.299301 9 
424 1 1596.09 1862.34 3320.02 -0.804012 -0.585188 9 
425 1 1555.88 1800 3315.36 -0.811168 0.10719 8 
426 1 1185.29 2067.96 3180.67 -0.204409 0.00758644 10 
427 1 1255.25 2065.12 3210.27 -0.638542 -0.983216 10 
428 1 1327.68 2062.06 3236.72 0.73374 0.190126 10 
429 1 1402.26 2058.62 3259.74 0.549387 0.375975 10 
430 1 1478.73 2054.7 3279.13 0.299413 0.438019 10 
431 1 1556.98 2050.56 3294.68 -0.692034 -0.758034 10 
432 1 1636.92 2047.01 3306.09 -0.170239 -0.168602 10 
433 1 1596.57 1986.81 3309.85 -0.654915 -0.552024 10 
434 1 1556.4 1925.58 3310.23 0.532609 -0.243367 10 
435 1 1516.41 1863.32 3307.14 0.566173 -0.110174 10 
436 1 1476.97 1800 3300.52 -0.169977 -1.05001 12 
437 1 1218.66 2000.24 3206.37 0.972408 -0.00537261 11 
438 1 1290.15 1998.23 3234.11 -0.992509 0.423659 10 
439 1 1363.89 1995.8 3258.56 -0.902214 -1.02154 10 
440 1 1439.61 1992.88 3279.47 0.143179 0.0226351 10 
441 1 1517.21 1989.71 3296.65 0.699347 0.436615 10 
442 1 1477.69 1927.64 3295.24 0.723708 -0.81319 10 
443 1 1438.46 1864.4 3290.32 0.846139 -1.28331 11 
444 1 1399.97 1800 3281.86 0.321162 -0.784465 12 
445 1 1253.27 1933.03 3228.04 0.559208 0.289022 12 
446 1 1326.02 1931.67 3253.94 0.787932 -1.08404 12 
447 1 1400.86 1929.81 3276.4 -0.260903 -0.970318 10 
448 1 1362.55 1865.49 3269.79 0.735265 0.283574 12 
449 1 1325.12 1800 3259.59 -0.935954 0.653699 12 
450 1 1288.74 1866.27 3245.73 0.44215 -0.0341799 12 
451 1 2686.93 3050.73 1870.42 -0.719885 -0.194441 10 
452 1 2659.08 3071.97 1800 -0.946584 -0.78713 12 
453 1 2761.95 2987.75 1659.16 -0.824336 0.163906 10 
454 1 2743.79 3008.32 1871.63 -0.869718 -0.181043 10 
455 1 2717.68 3030.36 1800 0.690715 -0.49414 11 
456 1 2831.18 2917.25 1589.45 -0.927966 0.0936774 10 
457 1 2816.79 2941.01 1942.01 0.498094 -0.0503563 10 
458 1 2797.89 2964.04 1871.77 0.414509 0.0341695 10 
459 1 2772.86 2987.21 1800 -0.443008 -0.112675 10 
460 1 2743.79 3008.32 1728.37 -0.153451 -0.0527939 10 
461 1 2894.26 2839.48 1520.76 0.352934 0.0936749 10 
462 1 2883.28 2866.63 2011.44 0.272298 -0.659149 9 
463 1 2868.79 2892.41 1942.28 0.456365 -0.973958 10 
464 1 2849.89 2917.36 1871.68 -0.221229 0.531818 10 
465 1 2825.86 2941.72 1800 0.952783 0.505189 10 
466 1 2797.89 2964.04 1728.23 0.71192 -1.05024 10 
467 1 2950.72 2754.85 1453.54 0.158862 -1.26297 8 
468 1 2943.25 2785.26 2079.58 0.282027 0.627293 9 
469 1 2932.61 2814.09 2011.49 0.540813 -0.0113804 9 
470 1 2918.37 2841.63 1942.11 0.713845 -1.13837 10 
471 1 2899.87 2868.22 1871.49 0.0625574 0.464315 10 
472 1 2876.83 2893.78 1800 0.961146 0.200352 10 
473 1 2849.89 2917.36 1728.32 -0.854144 -1.27467 10 
474 1 2816.79 2941.01 1657.99 0.768473 -1.12675 10 
475 1 3000.03 2663.92 1388.33 -0.212189 0.618816 8 
476 1 2996.28 2697.31 2145.93 -0.300254 -1.08401 8 
477 1 2989.47 2729.09 2079.05 -0.447529 -0.368954 9 
478 1 2979.38 2759.42 2010.96 -0.229578 -0.125474 10 
479 1 2965.64 2788.51 1941.64 -0.332862 0.558425 10 
480 1 2947.8 2816.57 1871.21 -0.0076636 0.438032 10 
481 1 2925.77 2843.35 1800 -0.209306 -1.19067 10 
482 1 2899.87 2868.22 1728.51 0.141187 0.367945 10 
483 1 2868.79 2892.41 1657.72 -0.965656 -0.579613 10 
484 1 3041.94 2603.4 2209.94 0.161866 -1.20642 8 
485 1 3039.08 2637.82 2144.47 0.316166 -0.264856 8 
486 1 3033.05 2670.81 2077.83 -0.0848667 -0.782773 9 
487 1 3023.66 2702.49 2009.97 -0.0703819 -1.03143 10 
488 1 3010.63 2732.97 1940.94 0.884483 -1.0032 10 
489 1 2993.61 2762.39 1870.85 0.647592 -0.820088 10 
490 1 2972.62 2790.4 1800 -0.299884 -0.153097 10 
491 1 2947.8 2816.57 1728.79 -0.996068 -0.620853 10 
492 1 2918.37 2841.63 1657.89 0.883081 0.202705 10 
493 1 2883.28 2866.63 1588.56 0.309627 0.34325 9 
494 1 3041.94 2603.4 1390.06 -0.58375 0.452158 8 
495 1 3081.04 2540.98 1392.8 0.535185 0.216269 8 
496 1 3079.18 2576.23 2142.17 -0.977574 -0.091051 8 
497 1 3074.04 2610.29 2075.99 -0.0290829 -0.925788 9 
498 1 3065.48 2643.19 2008.59 0.734185 0.0767428 10 
499 1 3053.31 2674.95 1940 0.84714 0.179678 10 
500 1 3037.23 2705.66 1870.39 0.407903 -0.936747 10 
501 1 3017.31 2734.91 1800 0.529744 -0.798629 10 
502 1 2993.61 2762.39 1729.15 -0.820728 0.342266 10 
503 1 2965.64 2788.51 1658.36 0.923377 0.459134 10 
504 1 2932.61 2814.09 1588.51 0.0717016 -0.88368 9 
505 1 2996.28 2697.31 1454.07 0.589458 0.250629 8 
506 1 3039.08 2637.82 1455.53 -0.416097 -0.76956 8 
507 1 3079.18 2576.23 1457.83 -0.800561 0.171247 8 
508 1 3116.51 2512.5 1460.8 -0.654162 -0.362178 8 
509 1 3112.41 2547.43 2073.57 0.752986 -0.471747 9 
510 1 3104.8 2581.44 2006.82 -0.0920262 0.198421 10 
511 1 3093.59 2614.41 1938.85 -0.997289 0.594541 10 
512 1 3078.57 2646.34 1869.82 0.289373 -1.04285 10 
513 1 3059.78 2676.86 1800 0.119072 -0.79832 10 
514 1 3037.23 2705.66 1729.61 -0.863928 -1.197 10 
515 1 3010.63 2732.97 1659.06 0.926095 0.561142 10 
516 1 2979.38 2759.42 1589.04 0.788383 -0.045605 10 
517 1 2943.25 2785.26 1520.42 -0.351362 -0.0703753 9 
518 1 2989.47 2729.09 1520.95 -0.369861 0.455774 9 
519 1 3033.05 2670.81 1522.17 -0.226773 -0.496653 9 
520 1 3074.04 2610.29 1524.01 -0.832773 0.460942 9 
521 1 3112.41 2547.43 1526.43 -0.478139 -1.18038 9 
522 1 3148.02 2482.24 1529.23 0.19537 -0.671679 8 
523 1 3141.54 2517.16 2004.64 -0.0919411 0.0342142 10 
524 1 3131.39 2551.28 1937.48 0.91231 -1.17037 10 
525 1 3117.51 2584.42 1869.18 -0.742607 0.0706456 10 
526 1 3099.91 2616.19 1800 0.0117345 -1.0529 10 
527 1 3078.57 2646.34 1730.18 0.792465 -0.122809 10 
528 1 3053.31 2674.95 1660 0.977438 -0.932141 10 
529 1 3023.66 2702.49 1590.03 0.067252 0.474052 10 
530 1 3065.48 2643.19 1591.41 0.116674 -0.412234 10 
531 1 3104.8 2581.44 1593.18 -0.82116 0.373229 10 
532 1 3141.54 2517.16 1595.36 -0.170692 0.256453 10 
533 1 3175.46 2450.44 1597.65 0.867187 0.53844 12 
534 1 3166.57 2485.54 1935.85 -0.915106 -0.45291 11 
535 1 3153.89 2519.87 1868.42 0.142318 -0.550116 10 
536 1 3137.54 2552.92 1800 0.214395 -0.791788 10 
537 1 3117.51 2584.42 1730.82 -0.838106 -0.276224 10 
538 1 3093.59 2614.41 1661.15 -0.650231 -0.0285049 10 
539 1 3131.39 2551.28 1662.52 0.683425 0.0187978 10 
540 1 3166.57 2485.54 1664.15 -0.25473 -1.15783 11 
541 1 3198.86 2417.31 1665.71 0.188971 -0.707925 12 
542 1 3187.57 2452.7 1867.54 0.502579 0.288623 12 
543 1 3172.56 2487.03 1800 -0.664921 -0.468208 12 
544 1 3153.89 2519.87 1731.58 0.776265 -0.267338 10 
545 1 3187.57 2452.7 1732.46 -0.496644 0.24593 12 
546 1 3218.27 2383.05 1733.15 -0.513944 -1.2964 12 
547 1 3204.77 2418.49 1800 -0.344116 0.386927 12 
548 1 1097.42 3164.66 1800 -0.273115 -0.296066 10 
549 1 1036.42 3130.99 1763.52 -0.530855 0.46703 12 
550 1 1065.93 3128.58 1572.12 0.855934 -0.980208 10 
551 1 1149.91 3189.84 1759.45 0.069331 -1.21969 10 
552 1 1088.2 3157.6 1721.36 -0.199137 -0.790436 11 
553 1 1109.5 3127.8 1459.32 -0.693848 0.0794925 10 
554 1 1262.12 3236.99 1759.09 0.749321 0.560242 10 
555 1 1202.52 3211.51 1718.82 0.960994 -1.2603 10 
556 1 1140.16 3180.66 1680.44 -0.0577318 0.19833 10 
557 1 1078.28 3145.57 1643.54 0.584224 -0.0566053 10 
558 1 1157.56 3118.73 1348.17 0.435619 -0.852975 10 
559 1 1377.55 3275.05 1759.02 0.407781 -1.20357 9 
560 1 1317.64 3254.84 1718.28 0.034656 -0.0687511 10 
561 1 1256.31 3230.21 1678.33 -0.449421 0.513267 10 
562 1 1193.33 3200.8 1639.88 0.0765338 -1.01551 10 
563 1 1130.75 3167.15 1602.7 0.990803 0.236677 10 
564 1 1209.87 3101.31 1239.41 -0.237431 -0.957321 8 
565 1 1495.98 3303.93 1759.02 0.296263 0.65182 9 
566 1 1435.32 3288.7 1718.16 -0.455759 0.640133 9 
567 1 1373.95 3269.5 1677.66 0.883578 0.271708 10 
568 1 1311.42 3246.02 1638 -0.993814 -0.415879 10 
569 1 1247.87 3218.06 1599.58 0.531174 -1.18119 10 
570 1 1184.63 3185.91 1562.35 0.309367 -0.370303 10 
571 1 1120.1 3149.22 1529.31 -0.0370581 -0.991379 10 
572 1 1266.07 3075.6 1133.9 0.795668 -0.917194 8 
573 1 1616.7 3323.36 1759.01 -0.268969 -0.610695 8 
574 1 1555.45 3313.08 1718.12 0.130816 -1.09338 9 
575 1 1493.74 3299.03 1677.46 0.792696 0.662002 10 