ITEM: TIMESTEP
0
ITEM: NUMBER OF ATOMS
4875
ITEM: BOX BOUNDS pp pp pp
0 5000
0 5000
0 4000
ITEM: ATOMS id type x y z vx vy vz 
1 1 0 0 1000 -0.326824 -0.62179 9 
2 1 76.78 0 1000 -0.264911 0.74173 9 
3 1 153.56 0 1000 0.245619 -0.328242 10 
4 1 230.34 0 1000 -0.381184 0.42728 10 
5 1 307.12 0 1000 -0.715919 0.22 10 
6 1 383.9 0 1000 -0.731226 -0.943483 10 
7 1 460.68 0 1000 0.203985 0.0701608 10 
8 1 537.46 0 1000 -0.632745 0.235212 10 
9 1 614.24 0 1000 0.501072 0.144381 10 
10 1 691.02 0 1000 -0.784033 0.266004 10 
11 1 767.8 0 1000 -0.0196709 0.477114 10 
12 1 844.58 0 1000 -0.647945 -0.248733 10 
13 1 921.36 0 1000 -0.71208 -0.568482 10 
14 1 998.14 0 1000 0.494694 0.672523 10 
15 1 1074.92 0 1000 0.920039 -0.408639 10 
16 1 1151.7 0 1000 -0.0722578 0.469241 10 
17 1 1228.48 0 1000 0.208355 -0.706968 10 
18 1 1305.26 0 1000 0.0214465 0.357548 10 
19 1 1382.04 0 1000 -0.862093 -0.893364 10 
20 1 1458.82 0 1000 -0.474845 0.161095 10 
21 1 1535.6 0 1000 -0.919166 0.098637 10 
22 1 1612.38 0 1000 0.498177 0.185501 10 
23 1 1689.16 0 1000 -0.741476 0.999095 10 
24 1 1765.94 0 1000 0.688968 -0.89155 10 
25 1 1842.72 0 1000 0.774061 0.711291 10 
26 1 1919.5 0 1000 0.745534 0.489333 10 
27 1 1996.28 0 1000 0.331127 -0.930169 10 
28 1 2073.06 0 1000 0.714058 -0.412537 10 
29 1 2149.84 0 1000 -0.13111 0.518477 10 
30 1 2226.62 0 1000 0.789676 -0.740633 10 
31 1 2303.4 0 1000 -0.705458 -0.769629 10 
32 1 2380.18 0 1000 0.914032 -0.73514 10 
33 1 2456.96 0 1000 0.875082 0.784326 10 
34 1 2533.74 0 1000 -0.20749 -0.917118 10 
35 1 2610.52 0 1000 0.652001 -0.194921 10 
36 1 2687.3 0 1000 0.882999 0.358179 10 
37 1 2764.08 0 1000 -0.453315 -0.780455 10 
38 1 2840.86 0 1000 -0.259927 0.0261979 10 
39 1 2917.64 0 1000 0.0511423 -0.0201883 10 
40 1 2994.42 0 1000 -0.00616996 -0.783305 10 
41 1 3071.2 0 1000 0.0210789 -0.55143 10 
42 1 3147.98 0 1000 -0.94545 0.250028 10 
43 1 3224.76 0 1000 -0.403713 -0.829952 10 
44 1 3301.54 0 1000 -0.257979 0.520696 10 
45 1 3378.32 0 1000 0.816013 0.265306 10 
46 1 3455.1 0 1000 -0.839858 -0.498025 10 
47 1 3531.88 0 1000 0.753968 -0.251509 10 
48 1 3608.66 0 1000 0.286583 -0.83049 10 
49 1 3685.44 0 1000 0.0916132 0.143499 10 
50 1 3762.22 0 1000 0.456277 -0.51123 10 
51 1 3839 0 1000 0.399051 0.917912 10 
52 1 3915.78 0 1000 0.687364 -0.869056 10 
53 1 3992.56 0 1000 0.798918 0.19257 10 
54 1 4069.34 0 1000 0.314248 0.530106 10 
55 1 4146.12 0 1000 -0.312535 -0.818283 10 
56 1 4222.9 0 1000 -0.94867 -0.161774 10 
57 1 4299.68 0 1000 0.845044 0.492021 10 
58 1 4376.46 0 1000 0.51887 -0.685331 10 
59 1 4453.24 0 1000 -0.416384 0.0508455 10 
60 1 4530.02 0 1000 -0.530487 0.821609 10 
61 1 4606.8 0 1000 -0.14178 0.131299 10 
62 1 4683.58 0 1000 0.307911 0.602236 10 
63 1 4760.36 0 1000 0.633782 0.597551 10 
64 1 4837.14 0 1000 0.722579 -0.955111 10 
65 1 4913.92 0 1000 -0.00776061 -0.879265 9 
66 1 38.39 66.4934 1000 0.557065 -0.319404 9 
67 1 115.17 66.4934 1000 0.864902 -0.331702 11 
68 1 191.95 66.4934 1000 0.12798 0.278 11 
69 1 268.73 66.4934 1000 0.951649 -0.886615 11 
70 1 345.51 66.4934 1000 -0.528518 0.0891487 11 
71 1 422.29 66.4934 1000 0.749462 0.528049 11 
72 1 499.07 66.4934 1000 -0.191492 0.671915 11 
73 1 575.85 66.4934 1000 -0.0929797 0.944778 11 
74 1 652.63 66.4934 1000 -0.94905 -0.815067 11 
75 1 729.41 66.4934 1000 -0.0761907 0.45545 11 
76 1 806.19 66.4934 1000 0.72946 -0.214812 11 
77 1 882.97 66.4934 1000 0.607008 -0.897983 11 
78 1 959.75 66.4934 1000 -0.241603 -0.0827179 11 
79 1 1036.53 66.4934 1000 -0.536471 -0.0966095 11 
80 1 1113.31 66.4934 1000 -0.450303 -0.245161 11 
81 1 1190.09 66.4934 1000 0.481941 -0.103137 11 
82 1 1266.87 66.4934 1000 -0.0163684 0.250669 11 
83 1 1343.65 66.4934 1000 0.385429 -0.689989 11 
84 1 1420.43 66.4934 1000 -0.36351 0.877333 11 
85 1 1497.21 66.4934 1000 -0.261707 -0.810908 11 
86 1 1573.99 66.4934 1000 0.814896 0.631119 11 
87 1 1650.77 66.4934 1000 0.503725 -0.646582 11 
88 1 1727.55 66.4934 1000 0.901487 0.456694 11 
89 1 1804.33 66.4934 1000 0.439144 -0.0820454 11 
90 1 1881.11 66.4934 1000 -0.701023 0.783359 11 
91 1 1957.89 66.4934 1000 0.881565 -0.951601 11 
92 1 2034.67 66.4934 1000 -0.297965 0.365182 11 
93 1 2111.45 66.4934 1000 -0.758561 -0.0942998 11 
94 1 2188.23 66.4934 1000 0.20922 0.160721 11 
95 1 2265.01 66.4934 1000 0.974778 -0.83626 11 
96 1 2341.79 66.4934 1000 -0.745692 -0.308223 11 
97 1 2418.57 66.4934 1000 -0.813294 -0.0516279 11 
98 1 2495.35 66.4934 1000 -0.823022 -0.0920797 11 
99 1 2572.13 66.4934 1000 -0.847129 -0.84697 11 
100 1 2648.91 66.4934 1000 -0.133957 0.887681 11 
101 1 2725.69 66.4934 1000 0.438715 -0.352559 11 
102 1 2802.47 66.4934 1000 -0.121287 -0.992592 11 
103 1 2879.25 66.4934 1000 0.72685 0.915954 11 
104 1 2956.03 66.4934 1000 -0.211958 0.868394 11 
105 1 3032.81 66.4934 1000 0.846124 0.675665 11 
106 1 3109.59 66.4934 1000 0.738919 -0.145554 11 
107 1 3186.37 66.4934 1000 0.334105 0.800975 11 
108 1 3263.15 66.4934 1000 0.0107905 -0.236494 11 
109 1 3339.93 66.4934 1000 -0.746612 0.56766 11 
110 1 3416.71 66.4934 1000 0.845569 0.0938424 11 
111 1 3493.49 66.4934 1000 0.606336 -0.934947 11 
112 1 3570.27 66.4934 1000 0.144684 0.54 11 
113 1 3647.05 66.4934 1000 0.805072 -0.461464 11 
114 1 3723.83 66.4934 1000 0.684973 0.228217 11 
115 1 3800.61 66.4934 1000 0.954196 -0.213905 11 
116 1 3877.39 66.4934 1000 0.0809187 -0.244694 11 
117 1 3954.17 66.4934 1000 0.87146 -0.871103 11 
118 1 4030.95 66.4934 1000 0.0374809 -0.690805 11 
119 1 4107.73 66.4934 1000 -0.918458 -0.843311 11 
120 1 4184.51 66.4934 1000 -0.194532 0.204896 11 
121 1 4261.29 66.4934 1000 0.90655 -0.660151 11 
122 1 4338.07 66.4934 1000 0.843805 0.873527 11 
123 1 4414.85 66.4934 1000 0.826011 -0.134253 11 
124 1 4491.63 66.4934 1000 -0.775386 0.0609842 11 
125 1 4568.41 66.4934 1000 0.968782 -0.385726 11 
126 1 4645.19 66.4934 1000 -0.542678 -0.969848 11 
127 1 4721.97 66.4934 1000 0.0923287 -0.603315 11 
128 1 4798.75 66.4934 1000 -0.13976 -0.748894 11 
129 1 4875.53 66.4934 1000 0.88567 0.204419 9 
130 1 4952.31 66.4934 1000 -0.834092 0.0894028 9 
131 1 0 132.987 1000 -0.337837 0.113351 10 
132 1 76.78 132.987 1000 0.539749 -0.749 10 
133 1 153.56 132.987 1000 -0.462609 0.675115 12 
134 1 230.34 132.987 1000 0.36909 0.581118 12 
135 1 307.12 132.987 1000 0.180312 0.722774 12 
136 1 383.9 132.987 1000 0.68553 -0.801689 12 
137 1 460.68 132.987 1000 0.068858 0.595939 12 
138 1 537.46 132.987 1000 0.611785 -0.190644 12 
139 1 614.24 132.987 1000 0.254444 0.768452 12 
140 1 691.02 132.987 1000 -0.2229 0.150421 12 
141 1 767.8 132.987 1000 0.589654 -0.917178 12 
142 1 844.58 132.987 1000 0.0424924 -0.778412 12 
143 1 921.36 132.987 1000 -0.698758 -0.170062 12 
144 1 998.14 132.987 1000 -0.805515 -0.30004 12 
145 1 1074.92 132.987 1000 0.387847 -0.77449 12 
146 1 1151.7 132.987 1000 0.791423 0.226841 12 
147 1 1228.48 132.987 1000 0.220309 -0.490787 12 
148 1 1305.26 132.987 1000 0.793221 0.161299 12 
149 1 1382.04 132.987 1000 -0.185129 -0.907918 12 
150 1 1458.82 132.987 1000 0.917829 -0.504342 12 
151 1 1535.6 132.987 1000 0.29473 -0.349928 12 
152 1 1612.38 132.987 1000 0.592486 -0.833141 12 
153 1 1689.16 132.987 1000 0.045268 0.0867951 12 
154 1 1765.94 132.987 1000 -0.948635 -0.332243 12 
155 1 1842.72 132.987 1000 -0.0566531 0.0118539 12 
156 1 1919.5 132.987 1000 -0.085262 0.291889 12 
157 1 1996.28 132.987 1000 -0.527781 0.692967 12 
158 1 2073.06 132.987 1000 0.787948 0.436662 12 
159 1 2149.84 132.987 1000 0.309784 -0.33657 12 
160 1 2226.62 132.987 1000 -0.545167 -0.115675 12 
161 1 2303.4 132.987 1000 0.515757 -0.26128 12 
162 1 2380.18 132.987 1000 -0.54812 -0.824474 12 
163 1 2456.96 132.987 1000 -0.646456 -0.760719 12 
164 1 2533.74 132.987 1000 -0.194582 0.93034 12 
165 1 2610.52 132.987 1000 -0.846973 0.164711 12 
166 1 2687.3 132.987 1000 -0.667068 0.686393 12 
167 1 2764.08 132.987 1000 0.976251 -0.786721 12 
168 1 2840.86 132.987 1000 0.228952 -0.0412174 12 
169 1 2917.64 132.987 1000 -0.588622 0.377226 12 
170 1 2994.42 132.987 1000 -0.850325 0.69979 12 
171 1 3071.2 132.987 1000 0.808257 -0.118391 12 
172 1 3147.98 132.987 1000 0.4304 -0.659535 12 
173 1 3224.76 132.987 1000 -0.99214 -0.779714 12 
174 1 3301.54 132.987 1000 -0.215323 -0.363503 12 
175 1 3378.32 132.987 1000 -0.663966 -0.0320986 12 
176 1 3455.1 132.987 1000 0.77828 0.228623 12 
177 1 3531.88 132.987 1000 -0.439681 0.332151 12 
178 1 3608.66 132.987 1000 -0.159411 0.404963 12 
179 1 3685.44 132.987 1000 -0.72612 0.682233 12 
180 1 3762.22 132.987 1000 -0.287478 -0.253267 12 
181 1 3839 132.987 1000 0.212505 0.0892047 12 
182 1 3915.78 132.987 1000 0.474106 -0.757294 12 
183 1 3992.56 132.987 1000 -0.41746 -0.169349 12 
184 1 4069.34 132.987 1000 0.892668 -0.213952 12 
185 1 4146.12 132.987 1000 0.166083 0.453975 12 
186 1 4222.9 132.987 1000 0.340532 0.714065 12 
187 1 4299.68 132.987 1000 0.368631 0.254755 12 
188 1 4376.46 132.987 1000 -0.270911 0.317631 12 
189 1 4453.24 132.987 1000 -0.588521 0.502051 12 
190 1 4530.02 132.987 1000 -0.319968 0.0259449 12 
191 1 4606.8 132.987 1000 0.00477707 0.182859 12 
192 1 4683.58 132.987 1000 -0.476143 -0.131549 12 
193 1 4760.36 132.987 1000 -0.950866 0.663793 12 
194 1 4837.14 132.987 1000 0.58548 -0.643575 12 
195 1 4913.92 132.987 1000 0.365053 -0.164703 10 
196 1 38.39 199.48 1000 -0.696331 0.227673 10 
197 1 115.17 199.48 1000 0.568465 -0.913934 12 
198 1 191.95 199.48 1000 0.825695 -0.588378 12 
199 1 268.73 199.48 1000 -0.791401 0.308349 12 
200 1 345.51 199.48 1000 -0.918288 0.507111 12 
201 1 422.29 199.48 1000 0.981749 -0.0572293 12 
202 1 499.07 199.48 1000 0.714483 -0.541437 12 
203 1 575.85 199.48 1000 -0.238944 0.210474 12 
204 1 652.63 199.48 1000 -0.800062 0.972679 12 
205 1 729.41 199.48 1000 0.366701 -0.826612 12 
206 1 806.19 199.48 1000 0.817916 0.865309 12 
207 1 882.97 199.48 1000 0.138977 0.162674 12 
208 1 959.75 199.48 1000 -0.3544 0.45042 12 
209 1 1036.53 199.48 1000 -0.859831 0.72179 12 
210 1 1113.31 199.48 1000 -0.481298 -0.586611 12 
211 1 1190.09 199.48 1000 0.11374 -0.74972 12 
212 1 1266.87 199.48 1000 0.5265 -0.355367 12 
213 1 1343.65 199.48 1000 -0.777283 0.233031 12 
214 1 1420.43 199.48 1000 -0.893179 0.325281 12 
215 1 1497.21 199.48 1000 0.289306 0.617391 12 
216 1 1573.99 199.48 1000 -0.0955057 -0.422368 12 
217 1 1650.77 199.48 1000 -0.0169903 -0.926826 12 
218 1 1727.55 199.48 1000 -0.254347 -0.953111 12 
219 1 1804.33 199.48 1000 -0.647192 0.415659 12 
220 1 1881.11 199.48 1000 -0.683615 -0.0250475 12 
221 1 1957.89 199.48 1000 -0.999107 -0.260003 12 
222 1 2034.67 199.48 1000 0.144276 0.014242 12 
223 1 2111.45 199.48 1000 0.261797 -0.335301 12 
224 1 2188.23 199.48 1000 -0.82596 0.232918 12 
225 1 2265.01 199.48 1000 0.0316007 -0.318653 12 
226 1 2341.79 199.48 1000 0.281177 -0.0333336 12 
227 1 2418.57 199.48 1000 -0.406873 -0.701645 12 
228 1 2495.35 199.48 1000 -0.451946 -0.203558 12 
229 1 2572.13 199.48 1000 -0.816201 -0.613907 12 
230 1 2648.91 199.48 1000 -0.925326 -0.450044 12 
231 1 2725.69 199.48 1000 -0.687629 -0.905941 12 
232 1 2802.47 199.48 1000 0.873506 -0.234095 12 
233 1 2879.25 199.48 1000 -0.239221 0.949543 12 
234 1 2956.03 199.48 1000 0.967989 0.0315576 12 
235 1 3032.81 199.48 1000 -0.390569 0.83227 12 
236 1 3109.59 199.48 1000 0.112309 -0.6852 12 
237 1 3186.37 199.48 1000 -0.625805 0.132013 12 
238 1 3263.15 199.48 1000 0.245296 -0.329577 12 
239 1 3339.93 199.48 1000 0.705873 0.313815 12 
240 1 3416.71 199.48 1000 0.0627413 -0.335175 12 
241 1 3493.49 199.48 1000 0.525316 0.473232 12 
242 1 3570.27 199.48 1000 0.719746 0.00810565 12 
243 1 3647.05 199.48 1000 -0.417244 0.345393 12 
244 1 3723.83 199.48 1000 0.656596 0.882027 12 
245 1 3800.61 199.48 1000 -0.874576 -0.916278 12 
246 1 3877.39 199.48 1000 -0.521871 -0.675274 12 
247 1 3954.17 199.48 1000 -0.157898 -0.903027 12 
248 1 4030.95 199.48 1000 0.866453 0.510882 12 
249 1 4107.73 199.48 1000 -0.898926 0.550861 12 
250 1 4184.51 199.48 1000 -0.774713 -0.7271 12 
251 1 4261.29 199.48 1000 0.403146 0.669712 12 
252 1 4338.07 199.48 1000 0.75189 -0.817278 12 
253 1 4414.85 199.48 1000 0.361415 0.356295 12 
254 1 4491.63 199.48 1000 0.339294 -0.172011 12 
255 1 4568.41 199.48 1000 0.0766748 0.352949 12 
256 1 4645.19 199.48 1000 -0.423519 -0.384863 12 
257 1 4721.97 199.48 1000 -0.105102 -0.491047 12 
258 1 4798.75 199.48 1000 0.442084 -0.683997 12 
259 1 4875.53 199.48 1000 0.6943 -0.929348 10 
260 1 4952.31 199.48 1000 0.414056 0.79029 10 
261 1 0 265.974 1000 0.616753 -0.59136 10 
262 1 76.78 265.974 1000 0.42643 0.845517 10 
263 1 153.56 265.974 1000 -0.418648 0.605078 12 
264 1 230.34 265.974 1000 -0.401161 -0.528133 12 
265 1 307.12 265.974 1000 0.951001 0.390057 12 
266 1 383.9 265.974 1000 -0.705866 0.151124 12 
267 1 460.68 265.974 1000 0.195959 0.910497 12 
268 1 537.46 265.974 1000 0.369248 -0.747376 12 
269 1 614.24 265.974 1000 -0.102809 -0.657665 12 
270 1 691.02 265.974 1000 -0.137564 -0.520922 12 
271 1 767.8 265.974 1000 0.0884897 -0.304644 12 
272 1 844.58 265.974 1000 0.959164 0.363773 12 
273 1 921.36 265.974 1000 0.363636 0.203101 12 
274 1 998.14 265.974 1000 -0.402002 0.591176 12 
275 1 1074.92 265.974 1000 0.35489 -0.402754 12 
276 1 1151.7 265.974 1000 -0.503144 -0.934185 12 
277 1 1228.48 265.974 1000 -0.770262 0.907953 12 
278 1 1305.26 265.974 1000 -0.101907 -0.623073 12 
279 1 1382.04 265.974 1000 -0.386324 0.871173 12 
280 1 1458.82 265.974 1000 0.0735147 -0.914662 12 
281 1 1535.6 265.974 1000 -0.65189 0.357216 12 
282 1 1612.38 265.974 1000 0.815256 -0.567999 12 
283 1 1689.16 265.974 1000 0.752969 -0.168875 12 
284 1 1765.94 265.974 1000 0.0604895 0.523021 12 
285 1 1842.72 265.974 1000 -0.874834 -0.715529 12 
286 1 1919.5 265.974 1000 0.423903 0.274866 12 
287 1 1996.28 265.974 1000 0.965033 -0.150545 12 
288 1 2073.06 265.974 1000 -0.370778 0.52264 12 
289 1 2149.84 265.974 1000 0.200791 0.0698889 12 
290 1 2226.62 265.974 1000 0.141816 0.535633 12 
291 1 2303.4 265.974 1000 0.292349 -0.191986 12 
292 1 2380.18 265.974 1000 -0.165921 -0.6184 12 
293 1 2456.96 265.974 1000 -0.792341 -0.952744 12 
294 1 2533.74 265.974 1000 -0.242057 0.391506 12 
295 1 2610.52 265.974 1000 0.859961 -0.173332 12 
296 1 2687.3 265.974 1000 0.0983867 -0.859763 12 
297 1 2764.08 265.974 1000 0.979503 0.298335 12 
298 1 2840.86 265.974 1000 0.662868 0.376721 12 
299 1 2917.64 265.974 1000 -0.202412 0.416018 12 
300 1 2994.42 265.974 1000 -0.660137 0.99944 12 
301 1 3071.2 265.974 1000 -0.704704 0.452499 12 
302 1 3147.98 265.974 1000 0.825825 0.596094 12 
303 1 3224.76 265.974 1000 -0.689083 -0.602394 12 
304 1 3301.54 265.974 1000 -0.0235387 0.623279 12 
305 1 3378.32 265.974 1000 -0.00354779 0.250086 12 
306 1 3455.1 265.974 1000 -0.877098 -0.244683 12 
307 1 3531.88 265.974 1000 -0.686108 -0.436446 12 
308 1 3608.66 265.974 1000 -0.47583 0.759156 12 
309 1 3685.44 265.974 1000 0.232139 -0.484982 12 
310 1 3762.22 265.974 1000 -0.332106 0.149408 12 
311 1 3839 265.974 1000 -0.267366 0.411769 12 
312 1 3915.78 265.974 1000 0.620058 -0.184712 12 
313 1 3992.56 265.974 1000 -0.479931 0.343579 12 
314 1 4069.34 265.974 1000 -0.511053 -0.174488 12 
315 1 4146.12 265.974 1000 -0.773224 0.989951 12 
316 1 4222.9 265.974 1000 0.930294 0.0791901 12 
317 1 4299.68 265.974 1000 -0.759682 -0.0844723 12 
318 1 4376.46 265.974 1000 -0.698362 0.206081 12 
319 1 4453.24 265.974 1000 -0.676244 0.734988 12 
320 1 4530.02 265.974 1000 -0.265053 0.422977 12 
321 1 4606.8 265.974 1000 0.835473 0.609145 12 
322 1 4683.58 265.974 1000 -0.05955 -0.46616 12 
323 1 4760.36 265.974 1000 -0.446107 -0.265175 12 
324 1 4837.14 265.974 1000 0.663186 0.368683 12 
325 1 4913.92 265.974 1000 0.282716 -0.168683 10 
326 1 38.39 332.467 1000 -0.647392 -0.685459 10 
327 1 115.17 332.467 1000 0.447091 -0.405692 12 
328 1 191.95 332.467 1000 -0.505919 0.533333 12 
329 1 268.73 332.467 1000 -0.174134 -0.555895 12 
330 1 345.51 332.467 1000 -0.879353 0.325987 12 
331 1 422.29 332.467 1000 -0.0527224 -0.94671 12 
332 1 499.07 332.467 1000 -0.861741 -0.41264 12 
333 1 575.85 332.467 1000 -0.849962 -0.580032 12 
334 1 652.63 332.467 1000 0.570595 -0.271544 12 
335 1 729.41 332.467 1000 -0.353597 0.30358 12 
336 1 806.19 332.467 1000 -0.328392 0.556699 12 
337 1 882.97 332.467 1000 0.830273 -0.575113 12 
338 1 959.75 332.467 1000 0.443904 0.840882 12 
339 1 1036.53 332.467 1000 -0.292641 0.213097 12 
340 1 1113.31 332.467 1000 0.072163 -0.122919 12 
341 1 1190.09 332.467 1000 0.958116 -0.000770555 12 
342 1 1266.87 332.467 1000 -0.430737 -0.562401 12 
343 1 1343.65 332.467 1000 0.654841 0.296883 12 
344 1 1420.43 332.467 1000 -0.778748 -0.624788 12 
345 1 1497.21 332.467 1000 0.657769 -0.988449 12 
346 1 1573.99 332.467 1000 0.883125 0.326177 12 
347 1 1650.77 332.467 1000 0.26906 -0.495791 12 
348 1 1727.55 332.467 1000 -0.864333 0.749702 12 
349 1 1804.33 332.467 1000 -0.522055 -0.976263 12 
350 1 1881.11 332.467 1000 0.781833 0.0332672 12 
351 1 1957.89 332.467 1000 -0.565933 -0.46829 12 
352 1 2034.67 332.467 1000 -0.28756 0.34177 12 
353 1 2111.45 332.467 1000 0.964374 -0.278213 12 
354 1 2188.23 332.467 1000 -0.0377033 -0.900036 12 
355 1 2265.01 332.467 1000 -0.296195 -0.348608 12 
356 1 2341.79 332.467 1000 0.323977 0.0657122 12 
357 1 2418.57 332.467 1000 -0.591787 0.242724 12 
358 1 2495.35 332.467 1000 -0.735013 0.072665 12 
359 1 2572.13 332.467 1000 0.447324 0.0223094 12 
360 1 2648.91 332.467 1000 0.181155 -0.20525 12 
361 1 2725.69 332.467 1000 0.444788 0.548287 12 
362 1 2802.47 332.467 1000 0.0338549 0.743918 12 
363 1 2879.25 332.467 1000 0.607975 -0.464746 12 
364 1 2956.03 332.467 1000 -0.630893 0.58934 12 
365 1 3032.81 332.467 1000 -0.0970601 -0.220399 12 
366 1 3109.59 332.467 1000 0.654849 0.142274 12 
367 1 3186.37 332.467 1000 -0.0364501 -0.619187 12 
368 1 3263.15 332.467 1000 0.37656 -0.617717 12 
369 1 3339.93 332.467 1000 -0.434503 -0.415042 12 
370 1 3416.71 332.467 1000 -0.0152159 -0.249378 12 
371 1 3493.49 332.467 1000 0.873176 -0.175576 12 
372 1 3570.27 332.467 1000 -0.189937 -0.0961888 12 
373 1 3647.05 332.467 1000 0.42551 -0.207676 12 
374 1 3723.83 332.467 1000 -0.310926 -0.106863 12 
375 1 3800.61 332.467 1000 0.594579 -0.391241 12 
376 1 3877.39 332.467 1000 0.207042 0.310641 12 
377 1 3954.17 332.467 1000 0.898923 -0.438969 12 
378 1 4030.95 332.467 1000 -0.335208 -0.778294 12 
379 1 4107.73 332.467 1000 -0.349047 -0.110093 12 
380 1 4184.51 332.467 1000 -0.572046 -0.343235 12 
381 1 4261.29 332.467 1000 0.188284 -0.100161 12 
382 1 4338.07 332.467 1000 0.647199 -0.972638 12 
383 1 4414.85 332.467 1000 -0.602124 0.281389 12 
384 1 4491.63 332.467 1000 -0.526292 0.709412 12 
385 1 4568.41 332.467 1000 -0.707497 0.537908 12 
386 1 4645.19 332.467 1000 0.407352 -0.956587 12 
387 1 4721.97 332.467 1000 0.599495 -0.673435 12 
388 1 4798.75 332.467 1000 0.623158 -0.572619 12 
389 1 4875.53 332.467 1000 -0.141611 0.160219 10 
390 1 4952.31 332.467 1000 -0.193931 -0.377037 10 
391 1 0 398.96 1000 0.300045 -0.497177 10 
392 1 76.78 398.96 1000 0.945737 -0.430011 10 
393 1 153.56 398.96 1000 0.485151 0.42202 12 
394 1 230.34 398.96 1000 0.794814 0.355361 12 
395 1 307.12 398.96 1000 -0.345019 0.864826 12 
396 1 383.9 398.96 1000 0.521103 -0.123661 12 
397 1 460.68 398.96 1000 0.341926 0.695393 12 
398 1 537.46 398.96 1000 0.0987389 -0.247813 12 
399 1 614.24 398.96 1000 0.650005 0.0267455 12 
400 1 691.02 398.96 1000 -0.0171318 -0.39086 12 
401 1 767.8 398.96 1000 0.0812921 0.628452 12 
402 1 844.58 398.96 1000 0.0891686 -0.0977864 12 
403 1 921.36 398.96 1000 -0.653619 0.601191 12 
404 1 998.14 398.96 1000 -0.451603 0.0917223 12 
405 1 1074.92 398.96 1000 -0.62693 -0.366459 12 
406 1 1151.7 398.96 1000 -0.243373 -0.0418515 12 
407 1 1228.48 398.96 1000 0.475458 -0.209422 12 
408 1 1305.26 398.96 1000 0.67454 -0.901589 12 
409 1 1382.04 398.96 1000 0.833176 0.879072 12 
410 1 1458.82 398.96 1000 0.48431 0.0287568 12 
411 1 1535.6 398.96 1000 0.354812 0.141719 12 
412 1 1612.38 398.96 1000 0.0766508 -0.668016 12 
413 1 1689.16 398.96 1000 -0.721264 0.413039 12 
414 1 1765.94 398.96 1000 -0.051285 0.617786 12 
415 1 1842.72 398.96 1000 0.878478 0.616247 12 
416 1 1919.5 398.96 1000 -0.772765 0.875527 12 
417 1 1996.28 398.96 1000 -0.994649 -0.0569954 12 
418 1 2073.06 398.96 1000 -0.273693 -0.352594 12 
419 1 2149.84 398.96 1000 -0.260094 -0.636428 12 
420 1 2226.62 398.96 1000 0.73554 -0.484933 12 
421 1 2303.4 398.96 1000 -0.200967 0.481976 12 
422 1 2380.18 398.96 1000 0.680076 -0.64297 12 
423 1 2456.96 398.96 1000 0.988888 -0.072336 12 
424 1 2533.74 398.96 1000 -0.609201 0.901448 12 
425 1 2610.52 398.96 1000 0.864551 -0.969319 12 
426 1 2687.3 398.96 1000 -0.615067 0.320354 12 
427 1 2764.08 398.96 1000 0.922711 0.724564 12 
428 1 2840.86 398.96 1000 0.214646 0.806703 12 
429 1 2917.64 398.96 1000 0.0722588 -0.883756 12 
430 1 2994.42 398.96 1000 0.384121 0.846612 12 
431 1 3071.2 398.96 1000 0.229707 -0.326183 12 
432 1 3147.98 398.96 1000 -0.992523 -0.206994 12 
433 1 3224.76 398.96 1000 0.559909 0.103269 12 
434 1 3301.54 398.96 1000 -0.902893 -0.0306429 12 
435 1 3378.32 398.96 1000 0.424476 -0.222665 12 
436 1 3455.1 398.96 1000 -0.0703061 -0.223971 12 
437 1 3531.88 398.96 1000 0.876752 -0.906965 12 
438 1 3608.66 398.96 1000 -0.621519 0.249855 12 
439 1 3685.44 398.96 1000 0.833957 0.0319629 12 
440 1 3762.22 398.96 1000 -0.537774 0.175743 12 
441 1 3839 398.96 1000 0.245797 0.531336 12 
442 1 3915.78 398.96 1000 0.439319 -0.046127 12 
443 1 3992.56 398.96 1000 -0.718641 -0.0609112 12 
444 1 4069.34 398.96 1000 -0.871837 -0.103059 12 
445 1 4146.12 398.96 1000 -0.937179 -0.878732 12 
446 1 4222.9 398.96 1000 -0.0888482 0.521159 12 
447 1 4299.68 398.96 1000 -0.388635 0.811249 12 
448 1 4376.46 398.96 1000 -0.39867 0.21131 12 
449 1 4453.24 398.96 1000 0.192732 0.809539 12 
450 1 4530.02 398.96 1000 -0.474924 -0.930037 12 
451 1 4606.8 398.96 1000 0.982842 0.973428 12 
452 1 4683.58 398.96 1000 0.283028 0.434209 12 
453 1 4760.36 398.96 1000 0.305465 -0.68383 12 
454 1 4837.14 398.96 1000 -0.782406 0.132299 12 
455 1 4913.92 398.96 1000 0.250291 -0.388032 10 
456 1 38.39 465.454 1000 -0.326596 0.775176 10 
457 1 115.17 465.454 1000 0.223522 0.113994 12 
458 1 191.95 465.454 1000 -0.219805 0.903438 12 
459 1 268.73 465.454 1000 0.546907 0.79373 12 
460 1 345.51 465.454 1000 0.609802 0.574377 12 
461 1 422.29 465.454 1000 -0.567901 -0.393622 12 
462 1 499.07 465.454 1000 0.797692 0.241751 12 
463 1 575.85 465.454 1000 0.928047 -0.143249 12 
464 1 652.63 465.454 1000 0.824014 -0.965881 12 
465 1 729.41 465.454 1000 -0.995777 0.854606 12 
466 1 806.19 465.454 1000 0.497419 0.832959 12 
467 1 882.97 465.454 1000 0.28292 0.287454 12 
468 1 959.75 465.454 1000 -0.330696 -0.0989444 12 
469 1 1036.53 465.454 1000 -0.689567 0.674671 12 
470 1 1113.31 465.454 1000 0.123317 0.070895 12 
471 1 1190.09 465.454 1000 -0.128758 0.133757 12 
472 1 1266.87 465.454 1000 0.673925 0.386777 12 
473 1 1343.65 465.454 1000 0.819882 0.847823 12 
474 1 1420.43 465.454 1000 0.0262094 -0.0913583 12 
475 1 1497.21 465.454 1000 -0.438588 -0.340716 12 
476 1 1573.99 465.454 1000 0.723722 -0.263353 12 
477 1 1650.77 465.454 1000 -0.111745 -0.714985 12 
478 1 1727.55 465.454 1000 -0.857939 0.955843 12 
479 1 1804.33 465.454 1000 0.800022 -0.763202 12 
480 1 1881.11 465.454 1000 -0.203614 0.651127 12 
481 1 1957.89 465.454 1000 0.506047 0.880444 12 
482 1 2034.67 465.454 1000 -0.208744 -0.180242 12 
483 1 2111.45 465.454 1000 -0.158494 0.843497 12 
484 1 2188.23 465.454 1000 -0.0782626 0.775735 12 
485 1 2265.01 465.454 1000 0.546805 -0.334597 12 
486 1 2341.79 465.454 1000 0.552374 0.470292 12 
487 1 2418.57 465.454 1000 0.702318 -0.102878 12 
488 1 2495.35 465.454 1000 0.333529 0.521853 12 
489 1 2572.13 465.454 1000 0.101401 -0.523362 12 
490 1 2648.91 465.454 1000 -0.730501 0.316647 12 
491 1 2725.69 465.454 1000 -0.766298 0.892353 12 
492 1 2802.47 465.454 1000 0.315666 0.431911 12 
493 1 2879.25 465.454 1000 -0.580889 0.106564 12 
494 1 2956.03 465.454 1000 0.699593 -0.184819 12 
495 1 3032.81 465.454 1000 0.576675 -0.558091 12 
496 1 3109.59 465.454 1000 0.430392 0.157282 12 
497 1 3186.37 465.454 1000 0.541962 0.640322 12 
498 1 3263.15 465.454 1000 -0.29062 0.22004 12 
499 1 3339.93 465.454 1000 0.39307 0.564995 12 
500 1 3416.71 465.454 1000 0.0665939 -0.225825 12 
501 1 3493.49 465.454 1000 -0.572571 0.55302 12 
502 1 3570.27 465.454 1000 0.554689 -0.18212 12 
503 1 3647.05 465.454 1000 -0.478224 0.729298 12 
504 1 3723.83 465.454 1000 0.907303 0.728088 12 
505 1 3800.61 465.454 1000 0.561832 -0.847959 12 
506 1 3877.39 465.454 1000 0.334226 -0.810616 12 
507 1 3954.17 465.454 1000 -0.431278 0.237816 12 
508 1 4030.95 465.454 1000 -0.323762 0.844989 12 
509 1 4107.73 465.454 1000 -0.230231 -0.619083 12 
510 1 4184.51 465.454 1000 0.732199 0.419435 12 
511 1 4261.29 465.454 1000 -0.657531 -0.87363 12 
512 1 4338.07 465.454 1000 0.970459 0.388787 12 
513 1 4414.85 465.454 1000 -0.951242 -0.740454 12 
514 1 4491.63 465.454 1000 -0.580335 -0.958816 12 
515 1 4568.41 465.454 1000 -0.90277 0.755374 12 
516 1 4645.19 465.454 1000 0.401689 0.282805 12 
517 1 4721.97 465.454 1000 0.231513 0.693657 12 
518 1 4798.75 465.454 1000 -0.194642 -0.828365 12 
519 1 4875.53 465.454 1000 -0.485276 -0.703423 10 
520 1 4952.31 465.454 1000 -0.81469 0.420368 10 
521 1 0 531.947 1000 0.112612 0.722818 10 
522 1 76.78 531.947 1000 -0.377228 0.00749515 10 
523 1 153.56 531.947 1000 -0.918319 -0.81504 12 
524 1 230.34 531.947 1000 -0.889901 0.231777 12 
525 1 307.12 531.947 1000 0.849628 -0.937931 12 
526 1 383.9 531.947 1000 0.894145 -0.981483 12 
527 1 460.68 531.947 1000 0.0183594 0.65926 12 
528 1 537.46 531.947 1000 -0.511072 -0.10105 12 
529 1 614.24 531.947 1000 -0.709114 0.861297 12 
530 1 691.02 531.947 1000 0.89391 0.523084 12 
531 1 767.8 531.947 1000 -0.967986 0.734704 12 
532 1 844.58 531.947 1000 0.569174 -0.455601 12 
533 1 921.36 531.947 1000 0.393285 -0.864727 12 
534 1 998.14 531.947 1000 0.240892 0.207097 12 
535 1 1074.92 531.947 1000 0.457989 0.0186737 12 
536 1 1151.7 531.947 1000 0.754251 0.906673 12 
537 1 1228.48 531.947 1000 0.0989144 0.680235 12 
538 1 1305.26 531.947 1000 -0.39215 -0.0861806 12 
539 1 1382.04 531.947 1000 0.430483 0.0790744 12 
540 1 1458.82 531.947 1000 0.431032 -0.87393 12 
541 1 1535.6 531.947 1000 -0.652007 0.125836 12 
542 1 1612.38 531.947 1000 0.171355 0.215812 12 
543 1 1689.16 531.947 1000 -0.129612 0.0161954 12 
544 1 1765.94 531.947 1000 0.561088 0.271619 12 
545 1 1842.72 531.947 1000 -0.96878 -0.132181 12 
546 1 1919.5 531.947 1000 0.499524 0.515151 12 
547 1 1996.28 531.947 1000 -0.0260388 0.120432 12 
548 1 2073.06 531.947 1000 -0.672724 -0.62109 12 
549 1 2149.84 531.947 1000 -0.917084 0.394156 12 
550 1 2226.62 531.947 1000 0.752766 -0.920852 12 
551 1 2303.4 531.947 1000 -0.413401 0.726214 12 
552 1 2380.18 531.947 1000 0.775573 -0.501114 12 
553 1 2456.96 531.947 1000 0.901584 0.873365 12 
554 1 2533.74 531.947 1000 -0.0455795 -0.270879 12 
555 1 2610.52 531.947 1000 0.722099 -0.265998 12 
556 1 2687.3 531.947 1000 0.80548 -0.217413 12 
557 1 2764.08 531.947 1000 -0.386629 0.0704716 12 
558 1 2840.86 531.947 1000 -0.643099 -0.285398 12 
559 1 2917.64 531.947 1000 -0.241248 -0.742118 12 
560 1 2994.42 531.947 1000 0.143507 0.788384 12 
561 1 3071.2 531.947 1000 0.922559 0.866099 12 
562 1 3147.98 531.947 1000 0.428957 -0.747081 12 
563 1 3224.76 531.947 1000 -0.738469 0.000757858 12 
564 1 3301.54 531.947 1000 -0.230166 0.12196 12 
565 1 3378.32 531.947 1000 -0.691738 -0.424906 12 
566 1 3455.1 531.947 1000 -0.298992 0.540543 12 
567 1 3531.88 531.947 1000 0.0074532 0.962847 12 
568 1 3608.66 531.947 1000 -0.195757 -0.725843 12 
569 1 3685.44 531.947 1000 0.751073 -0.631769 12 
570 1 3762.22 531.947 1000 0.526534 0.464623 12 
571 1 3839 531.947 1000 0.252385 0.927082 12 
572 1 3915.78 531.947 1000 0.26075 -0.59913 12 
573 1 3992.56 531.947 1000 -0.717321 0.0100142 12 
574 1 4069.34 531.947 1000 -0.793161 0.123639 12 
575 1 4146.12 531.947 1000 -0.0168347 -0.0349928 12 
576 1 4222.9 531.947 1000 -0.0385208 0.00041429 12 
577 1 4299.68 531.947 1000 -0.83839 -0.883629 12 
578 1 4376.46 531.947 1000 0.82732 0.825102 12 
579 1 4453.24 531.947 1000 0.323914 -0.013535 12 
580 1 4530.02 531.947 1000 -0.799708 -0.737015 12 
581 1 4606.8 531.947 1000 0.404032 -0.0938917 12 
582 1 4683.58 531.947 1000 0.527573 -0.584588 12 
583 1 4760.36 531.947 1000 -0.628108 0.0444186 12 
584 1 4837.14 531.947 1000 0.231707 -0.190753 12 
585 1 4913.92 531.947 1000 0.472189 0.0916039 10 
586 1 38.39 598.441 1000 0.624229 0.0672165 10 
587 1 115.17 598.441 1000 -0.876335 -0.614559 12 
588 1 191.95 598.441 1000 -0.614708 -0.196136 12 
589 1 268.73 598.441 1000 0.892258 -0.363936 12 
590 1 345.51 598.441 1000 0.122464 -0.396638 12 
591 1 422.29 598.441 1000 -0.616814 -0.649567 12 
592 1 499.07 598.441 1000 0.752506 -0.399424 12 
593 1 575.85 598.441 1000 0.501619 0.936163 12 
594 1 652.63 598.441 1000 -0.543137 -0.0165275 12 
595 1 729.41 598.441 1000 0.567384 -0.569923 12 
596 1 806.19 598.441 1000 -0.353859 0.235952 12 
597 1 882.97 598.441 1000 -0.0752185 0.121752 12 
598 1 959.75 598.441 1000 -0.570517 -0.333793 12 
599 1 1036.53 598.441 1000 0.780997 -0.341174 12 
600 1 1113.31 598.441 1000 0.938271 -0.879532 12 
601 1 1190.09 598.441 1000 -0.606595 -0.908787 12 
602 1 1266.87 598.441 1000 -0.383894 -0.986828 12 
603 1 1343.65 598.441 1000 0.326993 -0.2177 12 
604 1 1420.43 598.441 1000 -0.335829 0.113706 12 
605 1 1497.21 598.441 1000 -0.474902 0.626737 12 
606 1 1573.99 598.441 1000 0.181713 0.526245 12 
607 1 1650.77 598.441 1000 0.795404 0.347896 12 
608 1 1727.55 598.441 1000 0.231051 0.838777 12 
609 1 1804.33 598.441 1000 0.229953 -0.863347 12 
610 1 1881.11 598.441 1000 -0.89613 -0.86285 12 
611 1 1957.89 598.441 1000 0.173298 0.52245 12 
612 1 2034.67 598.441 1000 0.392733 0.784829 12 
613 1 2111.45 598.441 1000 -0.290626 0.86115 12 
614 1 2188.23 598.441 1000 -0.302348 -0.655559 12 
615 1 2265.01 598.441 1000 -0.722825 -0.491069 12 